chemcompute.org
{'UTCtimestamp': '2022-10-07T21:25:26.816291', 'cluster': 'jetstream2', 'clusterJobNumber': '121637', 'status': 'RUNNING', 'nodeList': 'chemcompute-node-1'}
----- GAMESS execution script 'rungms' -----
This job is running on host chemcompute-node-1.novalocal
under operating system Linux at Fri Oct 7 21:25:30 UTC 2022
SLURM has assigned the following compute nodes to this run:
Available scratch disk space (Kbyte units) at beginning of the job is
Filesystem     1K-blocks     Used Available Use% Mounted on
/dev/sda1       62903276 11226312  51676964  18% /
GAMESS temporary binary files will be written to /scratch/121637
GAMESS supplementary output files will be written to /data/slurm/46/461747
Copying input file 461747.inp to your run's scratch directory...
The generated host list is
chemcompute-node-1.novalocal

 Distributed Data Interface kickoff program.
 Initiating 1 compute processes on 1 nodes to run the following command:
 /data/gamess-2019R1-avx2-ddi/gamess.00.x 461747 

          ******************************************************
          *         GAMESS VERSION = 30 JUN 2019 (R1)          *
          *             FROM IOWA STATE UNIVERSITY             *
          * M.W.SCHMIDT, K.K.BALDRIDGE, J.A.BOATZ, S.T.ELBERT, *
          *   M.S.GORDON, J.H.JENSEN, S.KOSEKI, N.MATSUNAGA,   *
          *          K.A.NGUYEN, S.J.SU, T.L.WINDUS,           *
          *       TOGETHER WITH M.DUPUIS, J.A.MONTGOMERY       *
          *         J.COMPUT.CHEM.  14, 1347-1363(1993)        *
          **************** 64 BIT INTEL VERSION ****************

  SINCE 1993, STUDENTS AND POSTDOCS WORKING AT IOWA STATE UNIVERSITY
  AND ALSO IN THEIR VARIOUS JOBS AFTER LEAVING ISU HAVE MADE IMPORTANT
  CONTRIBUTIONS TO THE CODE:
     IVANA ADAMOVIC, CHRISTINE AIKENS, YURI ALEXEEV, POOJA ARORA,
     ANDREY ASADCHEV, ROB BELL, PRADIPTA BANDYOPADHYAY, JONATHAN BENTZ,
     COLLEEN BERTONI, BRETT BODE, KURT BRORSEN, CALEB CARLIN, GALINA CHABAN,
     WEI CHEN, CHEOL HO CHOI, PAUL DAY, ALBERT DEFUSCO, NUWAN DESILVA,
     TIM DUDLEY, DMITRI FEDOROV, ALEX FINDLATER, GRAHAM FLETCHER, 
     MARK FREITAG, KURT GLAESEMANN, ANASTASIA GUNINA,
     DAN KEMP, GRANT MERRILL, NORIYUKI MINEZAWA, JONATHAN MULLIN,
     TAKESHI NAGATA, SEAN NEDD, HEATHER NETZLOFF, BOSILJKA NJEGIC, RYAN OLSON,
     MIKE PAK, BUU PHAM,
     SPENCER PRUITT, LUKE ROSKOP, JIM SHOEMAKER, LYUDMILA SLIPCHENKO,
     TONY SMITH, SAROM SOK LEANG, JIE SONG, TETSUYA TAKETSUGU, SIMON WEBB,
     PENG XU, SOOHAENG YOO, FEDERICO ZAHARIEV

  ADDITIONAL CODE HAS BEEN PROVIDED BY COLLABORATORS IN OTHER GROUPS:
     IOWA STATE UNIVERSITY:
          JOE IVANIC, AARON WEST, LAIMUTIS BYTAUTAS, KLAUS RUEDENBERG
     UNIVERSITY OF TOKYO: KIMIHIKO HIRAO, TAKAHITO NAKAJIMA,
          TAKAO TSUNEDA, MUNEAKI KAMIYA, SUSUMU YANAGISAWA,
          KIYOSHI YAGI, MAHITO CHIBA, SEIKEN TOKURA, NAOAKI KAWAKAMI
     UNIVERSITY OF AARHUS: FRANK JENSEN
     UNIVERSITY OF IOWA: VISVALDAS KAIRYS, HUI LI
     NATIONAL INST. OF STANDARDS AND TECHNOLOGY: WALT STEVENS, DAVID GARMER
     UNIVERSITY OF PISA: BENEDETTA MENNUCCI, JACOPO TOMASI
     UNIVERSITY OF MEMPHIS: HENRY KURTZ, PRAKASHAN KORAMBATH
     UNIVERSITY OF ALBERTA: TOBY ZENG, MARIUSZ KLOBUKOWSKI
     UNIVERSITY OF NEW ENGLAND: MARK SPACKMAN
     MIE UNIVERSITY: HIROAKI UMEDA
     NAT. INST. OF ADVANCED INDUSTRIAL SCIENCE AND TECHNOLOGY: KAZUO KITAURA
     MICHIGAN STATE UNIVERSITY:
          KAROL KOWALSKI, MARTA WLOCH, JEFFREY GOUR, JESSE LUTZ,
          WEI LI, JUN SHEN, J. EMILIANO DEUSTUA, PIOTR PIECUCH
     UNIVERSITY OF MINNESOTA:
          YINAN SHU
     UNIVERSITY OF SILESIA: MONIKA MUSIAL, STANISLAW KUCHARSKI
     FACULTES UNIVERSITAIRES NOTRE-DAME DE LA PAIX:
          OLIVIER QUINET, BENOIT CHAMPAGNE
     UNIVERSITY OF CALIFORNIA - SANTA BARBARA: BERNARD KIRTMAN
     INSTITUTE FOR MOLECULAR SCIENCE:
          KAZUYA ISHIMURA, MICHIO KATOUDA, AND SHIGERU NAGASE
     UNIVERSITY OF NOTRE DAME: ANNA POMOGAEVA, DAN CHIPMAN
     KYUSHU UNIVERSITY:
          HARUYUKI NAKANO,
          FENG LONG GU, JACEK KORCHOWIEC, MARCIN MAKOWSKI, AND YURIKO AOKI,
          HIROTOSHI MORI AND EISAKU MIYOSHI
     PENNSYLVANIA STATE UNIVERSITY:
          TZVETELIN IORDANOV, CHET SWALINA, JONATHAN SKONE,
          SHARON HAMMES-SCHIFFER
     WASEDA UNIVERSITY:
          MASATO KOBAYASHI, TOMOKO AKAMA, TSUGUKI TOUMA,
          TAKESHI YOSHIKAWA, YASUHIRO IKABATA, JUNJI SEINO,
          YUYA NAKAJIMA, HIROMI NAKAI
     NANJING UNIVERSITY: SHUHUA LI
     UNIVERSITY OF NEBRASKA:
          PEIFENG SU, DEJUN SI, NANDUN THELLAMUREGE, YALI WANG, HUI LI
     UNIVERSITY OF ZURICH: ROBERTO PEVERATI, KIM BALDRIDGE
     N. COPERNICUS UNIVERSITY AND JACKSON STATE UNIVERSITY:
          MARIA BARYSZ
     UNIVERSITY OF COPENHAGEN: Jimmy Kromann, CASPER STEINMANN
     TOKYO INSTITUTE OF TECHNOLOGY: HIROYA NAKATA
     NAGOYA UNIVERSITY: YOSHIO NISHIMOTO, STEPHAN IRLE
     MOSCOW STATE UNIVERSITY: VLADIMIR MIRONOV
     A.N.NESMEYANOV INSTITUTE OF ORGANOELEMENT COMPOUNDS OF RUSSIAN ACADEMY OF SCIENCES:
          IGOR S. GERASIMOV

 EXECUTION OF GAMESS BEGUN Fri Oct  7 21:25:30 2022

            ECHO OF THE FIRST FEW INPUT CARDS -
 INPUT CARD>!                                                                               
 INPUT CARD>!   GAMESS Calculation input file                                               
 INPUT CARD>!                                                                               
 INPUT CARD>!                                                                               
 INPUT CARD> $CONTRL SCFTYP=RHF MAXIT=200 RUNTYP=OPTIMIZE                                   
 INPUT CARD>         COORD=UNIQUE MULT=1                                                    
 INPUT CARD>         ICHARG=0                                                               
 INPUT CARD>         DFTTYP=B3LYP                                                           
 INPUT CARD>         MOLPLT=.FALSE. PLTORB=.FALSE.  $END                                    
 INPUT CARD> $SYSTEM TIMLIM=2879 MWORDS=250  $END                                           
 INPUT CARD>                                                                                
 INPUT CARD> $FORCE METHOD=SEMINUM NVIB=2 $END                                              
 INPUT CARD> $STATPT OPTTOL=0.0005 NSTEP=999 $END                                           
 INPUT CARD> $STATPT IHREP=0 HSSEND=.TRUE.  $END                                            
 INPUT CARD>                                                                                
 INPUT CARD> $DFT    METHOD=GRID  NLEB=590  $END                                            
 INPUT CARD>                                                                                
 INPUT CARD> $BASIS  GBASIS=N21 NGAUSS=3 $END                                               
 INPUT CARD>                                                                                
 INPUT CARD> $SCF    DIRSCF=.T. $END                                                        
 INPUT CARD> $GUESS  GUESS=HUCKEL  $END                                                     
 INPUT CARD>                                                                                
 INPUT CARD> $DATA                                                                          
 INPUT CARD>                                                                                
 INPUT CARD>  C1                                                                            
 INPUT CARD>N     7.0    -1.19786     0.65532     0.18319                                   
 INPUT CARD>C     6.0    -0.08888     0.02192     0.00835                                   
 INPUT CARD>C     6.0     0.01570    -1.47541    -0.06907                                   
 INPUT CARD>O     8.0     1.09982     0.65795    -0.10855                                   
 INPUT CARD>H     1.0    -1.07057     1.66954     0.21641                                   
 INPUT CARD>H     1.0     0.54872    -1.84956     0.80984                                   
 INPUT CARD>H     1.0     0.55351    -1.76346    -0.97726                                   
 INPUT CARD>H     1.0    -0.98470    -1.91798    -0.09500                                   
 INPUT CARD>H     1.0     1.01285     1.62066    -0.05367                                   
 INPUT CARD> $END                                                                           
 INPUT CARD>                                                                                
 INPUT CARD>                                                                                
 INPUT CARD>! Customizations after this line are persisted when using Do More Calculations  
  250000000 WORDS OF MEMORY AVAILABLE

     BASIS OPTIONS
     -------------
     GBASIS=N21          IGAUSS=       3      POLAR=NONE    
     NDFUNC=       0     NFFUNC=       0     DIFFSP=       F
     NPFUNC=       0      DIFFS=       F     BASNAM=        


     RUN TITLE
     ---------
                                                                                 

 THE POINT GROUP OF THE MOLECULE IS C1      
 THE ORDER OF THE PRINCIPAL AXIS IS     0

 ATOM      ATOMIC                      COORDINATES (BOHR)
           CHARGE         X                   Y                   Z
 N           7.0    -2.2636271717        1.2383752343        0.3461789037
 C           6.0    -0.1679588458        0.0414227937        0.0157792120
 C           6.0     0.0296686980       -2.7881206195       -0.1305233740
 O           8.0     2.0783584358        1.2433452136       -0.2051297560
 H           1.0    -2.0230839507        3.1549731255        0.4089556010
 H           1.0     1.0369304440       -3.4951615979        1.5303756939
 H           1.0     1.0459822315       -3.3324561903       -1.8467536188
 H           1.0    -1.8608131801       -3.6244566499       -0.1795239688
 H           1.0     1.9140089667        3.0626033193       -0.1014215938

          INTERNUCLEAR DISTANCES (ANGS.)
          ------------------------------

                1 N          2 C          3 C          4 O          5 H     

   1 N       0.0000000    1.2890311 *  2.4650301 *  2.3161288 *  1.0227162 *
   2 C       1.2890311 *  0.0000000    1.5029730 *  1.3532211 *  1.9291594 *
   3 C       2.4650301 *  1.5029730 *  0.0000000    2.3933449 *  3.3394898  
   4 O       2.3161288 *  1.3532211 *  2.3933449 *  0.0000000    2.4165070 *
   5 H       1.0227162 *  1.9291594 *  3.3394898    2.4165070 *  0.0000000  
   6 H       3.1173155    2.1333910 *  1.0938836 *  2.7266752 *  3.9189698  
   7 H       3.2038161    2.1381473 *  1.0940848 *  2.6298932 *  3.9809513  
   8 H       2.5970560 *  2.1392491 *  1.0942307 *  3.3137324    3.6020341  
   9 H       2.4238859 *  1.9425821 *  3.2527211    0.9681870 *  2.1014213 *

                6 H          7 H          8 H          9 H     

   1 N       3.1173155    3.2038161    2.5970560 *  2.4238859 *
   2 C       2.1333910 *  2.1381473 *  2.1392491 *  1.9425821 *
   3 C       1.0938836 *  1.0940848 *  1.0942307 *  3.2527211  
   4 O       2.7266752 *  2.6298932 *  3.3137324    0.9681870 *
   5 H       3.9189698    3.9809513    3.6020341    2.1014213 *
   6 H       0.0000000    1.7891793 *  1.7817951 *  3.6060356  
   7 H       1.7891793 *  0.0000000    1.7799857 *  3.5378355  
   8 H       1.7817951 *  1.7799857 *  0.0000000    4.0637282  
   9 H       3.6060356    3.5378355    4.0637282    0.0000000  

  * ... LESS THAN  3.000


     ATOMIC BASIS SET
     ----------------
 THE CONTRACTED PRIMITIVE FUNCTIONS HAVE BEEN UNNORMALIZED
 THE CONTRACTED BASIS FUNCTIONS ARE NOW NORMALIZED TO UNITY

  SHELL TYPE  PRIMITIVE        EXPONENT          CONTRACTION COEFFICIENT(S)

 N         

      1   S       1           242.7660000    0.059865700508
      1   S       2            36.4851000    0.352955002994
      1   S       3             7.8144900    0.706513005993

      2   L       4             5.4252200   -0.413300077430    0.237972016222
      2   L       5             1.1491500    1.224417266851    0.858953058551

      3   L       6             0.2832050    1.000000000000    1.000000000000

 C         

      4   S       7           172.2560000    0.061766907377
      4   S       8            25.9109000    0.358794042852
      4   S       9             5.5333500    0.700713083689

      5   L      10             3.6649800   -0.395895162119    0.236459946619
      5   L      11             0.7705450    1.215834355681    0.860618805716

      6   L      12             0.1958570    1.000000000000    1.000000000000

 C         

      7   S      13           172.2560000    0.061766907377
      7   S      14            25.9109000    0.358794042852
      7   S      15             5.5333500    0.700713083689

      8   L      16             3.6649800   -0.395895162119    0.236459946619
      8   L      17             0.7705450    1.215834355681    0.860618805716

      9   L      18             0.1958570    1.000000000000    1.000000000000

 O         

     10   S      19           322.0370000    0.059239393389
     10   S      20            48.4308000    0.351499960776
     10   S      21            10.4206000    0.707657921031

     11   L      22             7.4029400   -0.404453583190    0.244586106967
     11   L      23             1.5762000    1.221561761397    0.853955373466

     12   L      24             0.3736840    1.000000000000    1.000000000000

 H         

     13   S      25             5.4471780    0.156284978695
     13   S      26             0.8245472    0.904690876670

     14   S      27             0.1831916    1.000000000000

 H         

     15   S      28             5.4471780    0.156284978695
     15   S      29             0.8245472    0.904690876670

     16   S      30             0.1831916    1.000000000000

 H         

     17   S      31             5.4471780    0.156284978695
     17   S      32             0.8245472    0.904690876670

     18   S      33             0.1831916    1.000000000000

 H         

     19   S      34             5.4471780    0.156284978695
     19   S      35             0.8245472    0.904690876670

     20   S      36             0.1831916    1.000000000000

 H         

     21   S      37             5.4471780    0.156284978695
     21   S      38             0.8245472    0.904690876670

     22   S      39             0.1831916    1.000000000000

 TOTAL NUMBER OF BASIS SET SHELLS             =   22
 NUMBER OF CARTESIAN GAUSSIAN BASIS FUNCTIONS =   46
 NUMBER OF ELECTRONS                          =   32
 CHARGE OF MOLECULE                           =    0
 SPIN MULTIPLICITY                            =    1
 NUMBER OF OCCUPIED ORBITALS (ALPHA)          =   16
 NUMBER OF OCCUPIED ORBITALS (BETA )          =   16
 TOTAL NUMBER OF ATOMS                        =    9
 THE NUCLEAR REPULSION ENERGY IS      120.9507252330

 SELECTED MURRAY-HANDY-LAMING RADIAL GRID

 LEGACY BECKE'S FUZZY CELL METHOD

 SELECTED ORIGINAL BECKE'S PARTITION FUNCTION

     LEBEDEV GRID-BASED DFT OPTIONS
     ------------------------------
     DFTTYP=B3LYP   
     NRAD  =      96     NLEB  =     590
     NRAD0 =      24     NLEB0 =     110
     SWOFF =    5.00E-03 (PURE SCF -> DFT)
     SWITCH=    3.00E-04 (COARSE -> TIGHT GRID)
     THRESH=    0.00E+00 GTHRE=    1.00E+00

 GRIMME'S EMPIRICAL DISPERSION CORRECTION= F

     $CONTRL OPTIONS
     ---------------
 SCFTYP=RHF          RUNTYP=OPTIMIZE     EXETYP=RUN     
 MPLEVL=       0     CITYP =NONE         CCTYP =NONE         VBTYP =NONE    
 DFTTYP=B3LYP        TDDFT =NONE    
 MULT  =       1     ICHARG=       0     NZVAR =       0     COORD =UNIQUE  
 PP    =NONE         RELWFN=NONE         LOCAL =NONE         NUMGRD=       F
 ISPHER=      -1     NOSYM =       0     MAXIT =     200     UNITS =ANGS    
 PLTORB=       F     MOLPLT=       F     AIMPAC=       F     FRIEND=        
 NPRINT=       7     IREST =       0     GEOM  =INPUT   
 NORMF =       0     NORMP =       0     ITOL  =      20     ICUT  =       9
 INTTYP=BEST         GRDTYP=BEST         QMTTOL= 1.0E-06

     $SYSTEM OPTIONS
     ---------------
  REPLICATED MEMORY=   250000000 WORDS (ON EVERY NODE).
 DISTRIBUTED MEMDDI=           0 MILLION WORDS IN AGGREGATE,
 MEMDDI DISTRIBUTED OVER   1 PROCESSORS IS           0 WORDS/PROCESSOR.
 TOTAL MEMORY REQUESTED ON EACH PROCESSOR=   250000000 WORDS.
 TIMLIM=        2879.00 MINUTES, OR       2.0 DAYS.
 PARALL= F  BALTYP=  DLB     KDIAG=    0  COREFL= F
 MXSEQ2=     300 MXSEQ3=     150  mem10=         0

          ----------------
          PROPERTIES INPUT
          ----------------

     MOMENTS            FIELD           POTENTIAL          DENSITY
 IEMOM =       1   IEFLD =       0   IEPOT =       0   IEDEN =       0
 WHERE =COMASS     WHERE =NUCLEI     WHERE =NUCLEI     WHERE =NUCLEI  
 OUTPUT=BOTH       OUTPUT=BOTH       OUTPUT=BOTH       OUTPUT=BOTH    
 IEMINT=       0   IEFINT=       0                     IEDINT=       0
                                                       MORB  =       0
          EXTRAPOLATION IN EFFECT
          DIIS IN EFFECT
 ORBITAL PRINTING OPTION: NPREO=     1    46     2     1

     -------------------------------
     INTEGRAL TRANSFORMATION OPTIONS
     -------------------------------
     NWORD  =            0
     CUTOFF = 1.0E-09     MPTRAN =       0
     DIRTRF =       T     AOINTS =DUP     

          ----------------------
          INTEGRAL INPUT OPTIONS
          ----------------------
 NOPK  =       1 NORDER=       0 SCHWRZ=       T

     ------------------------------------------
     THE POINT GROUP IS C1 , NAXIS= 0, ORDER= 1
     ------------------------------------------

     DIMENSIONS OF THE SYMMETRY SUBSPACES ARE
 A   =   46

 ..... DONE SETTING UP THE RUN .....
 STEP CPU TIME =     0.01 TOTAL CPU TIME =          0.0 (      0.0 MIN)
 TOTAL WALL CLOCK TIME=          0.0 SECONDS, CPU UTILIZATION IS    33.33%


          -----------------------------
          STATIONARY POINT LOCATION RUN
          -----------------------------

 OBTAINING INITIAL HESSIAN, HESS=GUESS   
 CARTESIAN COORDINATE OPTIMIZATION USING BADGER'S RULE FORCE CONSTANT GUESS

          PARAMETERS CONTROLLING GEOMETRY SEARCH ARE
          METHOD =QA                  UPHESS =BFGS    
          NNEG   =         0          NFRZ   =         0
          NSTEP  =       999          IFOLOW =         1
          HESS   =GUESS               RESTAR =         F
          IHREP  =         0          HSSEND =         T
          NPRT   =         0          NPUN   =         0
          OPTTOL = 5.000E-04          RMIN   = 1.500E-03
          RMAX   = 1.000E-01          RLIM   = 7.000E-02
          DXMAX  = 3.000E-01          PURIFY =         F
          MOVIE  =         F          TRUPD  =         T
          TRMAX  = 5.000E-01          TRMIN  = 5.000E-02
          ITBMAT =         5          STPT   =         F
          STSTEP = 1.000E-02          PROJCT=          T

 BEGINNING GEOMETRY SEARCH POINT NSERCH=   0 ...

 COORDINATES OF ALL ATOMS ARE (ANGS)
   ATOM   CHARGE       X              Y              Z
 ------------------------------------------------------------
 N           7.0  -1.1978600000   0.6553200000   0.1831900000
 C           6.0  -0.0888800000   0.0219200000   0.0083500000
 C           6.0   0.0157000000  -1.4754100000  -0.0690700000
 O           8.0   1.0998200000   0.6579500000  -0.1085500000
 H           1.0  -1.0705700000   1.6695400000   0.2164100000
 H           1.0   0.5487200000  -1.8495600000   0.8098400000
 H           1.0   0.5535100000  -1.7634600000  -0.9772600000
 H           1.0  -0.9847000000  -1.9179800000  -0.0950000000
 H           1.0   1.0128500000   1.6206600000  -0.0536700000

          ********************
          1 ELECTRON INTEGRALS
          ********************
 ...... END OF ONE-ELECTRON INTEGRALS ......
 STEP CPU TIME =     0.01 TOTAL CPU TIME =          0.0 (      0.0 MIN)
 TOTAL WALL CLOCK TIME=          0.0 SECONDS, CPU UTILIZATION IS    50.00%

          -------------
          GUESS OPTIONS
          -------------
          GUESS =HUCKEL            NORB  =       0          NORDER=       0
          MIX   =       F          PRTMO =       F          PUNMO =       F
          TOLZ  = 1.0E-08          TOLE  = 1.0E-05
          SYMDEN=       F          PURIFY=       F

 INITIAL GUESS ORBITALS GENERATED BY HUCKEL   ROUTINE.
 HUCKEL GUESS REQUIRES     24478 WORDS.

 SYMMETRIES FOR INITIAL GUESS ORBITALS FOLLOW.   BOTH SET(S).
    16 ORBITALS ARE OCCUPIED (    4 CORE ORBITALS).
     5=A        6=A        7=A        8=A        9=A       10=A       11=A   
    12=A       13=A       14=A       15=A       16=A       17=A       18=A   
    19=A       20=A       21=A       22=A       23=A       24=A       25=A   
    26=A   
 ...... END OF INITIAL ORBITAL SELECTION ......
 STEP CPU TIME =     0.00 TOTAL CPU TIME =          0.0 (      0.0 MIN)
 TOTAL WALL CLOCK TIME=          0.0 SECONDS, CPU UTILIZATION IS    40.00%

                    ----------------------
                    AO INTEGRAL TECHNOLOGY
                    ----------------------
     S,P,L SHELL ROTATED AXIS INTEGRALS, REPROGRAMMED BY
        KAZUYA ISHIMURA (IMS) AND JOSE SIERRA (SYNSTAR).
     S,P,D,L SHELL ROTATED AXIS INTEGRALS PROGRAMMED BY
        KAZUYA ISHIMURA (INSTITUTE FOR MOLECULAR SCIENCE).
     S,P,D,F,G SHELL TO TOTAL QUARTET ANGULAR MOMENTUM SUM 5,
        ERIC PROGRAM BY GRAHAM FLETCHER (ELORET AND NASA ADVANCED
        SUPERCOMPUTING DIVISION, AMES RESEARCH CENTER).
     S,P,D,F,G,L SHELL GENERAL RYS QUADRATURE PROGRAMMED BY
        MICHEL DUPUIS (PACIFIC NORTHWEST NATIONAL LABORATORY).

          --------------------
          2 ELECTRON INTEGRALS
          --------------------

 DIRECT SCF METHOD SKIPS INTEGRAL STORAGE ON DISK.
 DIRECT TRANSFORMATION SKIPS AO INTEGRAL STORAGE ON DISK.
  ...... END OF TWO-ELECTRON INTEGRALS .....
 STEP CPU TIME =     0.01 TOTAL CPU TIME =          0.0 (      0.0 MIN)
 TOTAL WALL CLOCK TIME=          0.1 SECONDS, CPU UTILIZATION IS    50.00%

          --------------------------
             R-B3LYP SCF CALCULATION
          --------------------------

     NUCLEAR ENERGY =       120.9507252330
     MAXIT =  200     NPUNCH=    2
     EXTRAP=T  DAMP=F  SHIFT=F  RSTRCT=F  DIIS=T  DEM=F  SOSCF=F
         DENSITY MATRIX CONVERGENCE THRESHOLD=  2.00E-05
     COARSE -> FINE DFT GRID SWITCH THRESHOLD=  3.00E-04 (SWITCH IN $DFT)
                   HF -> DFT SWITCH THRESHOLD=  5.00E-03 (SWOFF IN $DFT)
     MEMORY REQUIRED FOR RHF ITERS=    658753 WORDS.

 DIRECT SCF CALCULATION, SCHWRZ=T   FDIFF=T,  DIRTHR=  0.00E+00 NITDIR=10
 SCHWARZ INEQUALITY OVERHEAD:      1078 INTEGRALS, T=        0.00

 DFT CODE IS SWITCHING FROM THE FINE GRID NRAD= 96,  NLEB=  590
                      TO THE COARSE GRID NRAD0= 24, NLEB0=  110

     EXCHANGE FUNCTIONAL   =B88&HFX   
     CORRELATION FUNCTIONAL=LYP88&VWN5
     DFT THRESHOLD         =.785E-08
     GRID CHANGE THRESHOLD =.300E-03
 FOR AN EULER-MACLAURIN QUADRATURE USING  96 RADIAL POINTS:
 SMALLEST GAUSSIAN PRIMITIVE EXPONENT=        0.1831915800 OF TYPE -S-
 ON ATOM NUMBER   5 HAS RADIAL NORMALIZATION=  1.000000
  LARGEST GAUSSIAN PRIMITIVE EXPONENT=      322.0370000000 OF TYPE -S-
 ON ATOM NUMBER   4 HAS RADIAL NORMALIZATION=  1.000000
 DFT IS SWITCHED OFF, PERFORMING PURE SCF UNTIL SWOFF THRESHOLD IS REACHED.

                                                                                   NONZERO     BLOCKS
 ITER EX DEM     TOTAL ENERGY        E CHANGE  DENSITY CHANGE    DIIS ERROR      INTEGRALS    SKIPPED
   1  0  0     -206.1784272730  -206.1784272730   0.695841069   0.616280606         536673       5235
          * * *   INITIATING DIIS PROCEDURE   * * *
   2  1  0     -206.7025151428    -0.5240878698   0.225777463   0.139023396         536149       5561
   3  2  0     -206.7460014823    -0.0434863396   0.063218915   0.118636653         534600       6064
   4  3  0     -206.7764361065    -0.0304346241   0.038044270   0.012331439         532429       6492
   5  4  0     -206.7773554614    -0.0009193549   0.005296863   0.003013788         528603       7106
   6  5  0     -206.7774086280    -0.0000531666   0.002191009   0.001584893         522089       7805
 CONVERGED TO SWOFF, SO DFT CALCULATION IS NOW SWITCHED ON.
          * * *   INITIATING DIIS PROCEDURE   * * *
   7  6  0     -207.8797964395    -1.1023878115   0.087404187   0.074741225         536849       5108
   8  7  0     -207.8951658757    -0.0153694362   0.058561225   0.030671647         534424       6144
   9  8  0     -207.8965569716    -0.0013910958   0.026059180   0.036923625         532321       6438
  10  9  0     -207.8994760866    -0.0029191151   0.008394267   0.012522507         529673       6888
  11 10  0     -207.8997784665    -0.0003023799   0.001520373   0.003575017         524782       7567
  12 11  0     -207.8997948661    -0.0000163996   0.000396107   0.000671907         517708       8241
  13 12  0     -207.8997957488    -0.0000008828   0.000099184   0.000080365         508828       8909
 DFT CODE IS SWITCHING BACK TO THE FINE GRID
          * * *   INITIATING DIIS PROCEDURE   * * *
  14 13  0     -207.9017006077    -0.0019048588   0.001833602   0.001462830         536896       5071
  15 14  0     -207.9017083547    -0.0000077471   0.000882014   0.001032878         517111       8274
  16 15  0     -207.9017086011    -0.0000002463   0.000387202   0.000997093         514115       8572
  17 16  0     -207.9017100133    -0.0000014122   0.000157117   0.000237727         508869       9030
  18 17  0     -207.9017101187    -0.0000001054   0.000034232   0.000063932         497461      10017
  19 18  0     -207.9017101258    -0.0000000071   0.000008569   0.000012375         486078      10842
  20 19  0     -207.9017101261    -0.0000000004   0.000000851   0.000000879         470826      11992

          -----------------
          DENSITY CONVERGED
          -----------------
     TIME TO FORM FOCK OPERATORS=       6.0 SECONDS (       0.3 SEC/ITER)
     FOCK TIME ON FIRST ITERATION=       0.0, LAST ITERATION=       0.8
     TIME TO SOLVE SCF EQUATIONS=       0.1 SECONDS (       0.0 SEC/ITER)

 FINAL R-B3LYP ENERGY IS     -207.9017101261 AFTER  20 ITERATIONS
 DFT EXCHANGE + CORRELATION ENERGY =       -22.6490520958
 TOTAL ELECTRON NUMBER             =        32.0000029622

          ------------
          EIGENVECTORS
          ------------

                      1          2          3          4          5
                  -19.0650   -14.2104   -10.2173   -10.1213    -1.0795
                     A          A          A          A          A   
    1  N  1  S    0.000097   0.985112   0.000427  -0.000000  -0.039628
    2  N  1  S    0.000408   0.110937   0.000168  -0.000487   0.033638
    3  N  1  X    0.000173   0.005023  -0.001338  -0.000417   0.039756
    4  N  1  Y    0.000753   0.000785   0.001726   0.000437  -0.002753
    5  N  1  Z    0.000023  -0.000622   0.000251   0.000047  -0.005219
    6  N  1  S   -0.000063  -0.081688   0.000741   0.000374   0.105367
    7  N  1  X   -0.003313  -0.023064  -0.003489   0.001392   0.045391
    8  N  1  Y   -0.005802   0.003616  -0.005519   0.001031   0.016427
    9  N  1  Z    0.000114   0.003219   0.000226  -0.000040  -0.004979
   10  C  2  S   -0.000366   0.000021   0.985253   0.004883  -0.096284
   11  C  2  S   -0.000409  -0.000965   0.104105  -0.002472   0.108602
   12  C  2  X    0.001236   0.000186   0.000602  -0.000048   0.068222
   13  C  2  Y    0.000853  -0.000214  -0.000577   0.000753   0.066185
   14  C  2  Z   -0.000115  -0.000034  -0.000066   0.000060  -0.005029
   15  C  2  S    0.014156   0.029813  -0.057985   0.023715   0.097290
   16  C  2  X    0.017245  -0.026902   0.000520   0.000259  -0.018235
   17  C  2  Y    0.012891   0.023794   0.022335  -0.017572  -0.039416
   18  C  2  Z   -0.001568   0.004559   0.000888  -0.000920   0.000412
   19  C  3  S   -0.000066  -0.000133  -0.005470   0.986325  -0.014921
   20  C  3  S   -0.000677  -0.000894  -0.003890   0.112566   0.014402
   21  C  3  X   -0.000029  -0.000296   0.000233   0.000061   0.002293
   22  C  3  Y   -0.000211  -0.000147  -0.001048   0.000075   0.017821
   23  C  3  Z   -0.000062  -0.000041  -0.000014   0.000005   0.000488
   24  C  3  S    0.004362   0.008885   0.025893  -0.095178   0.009312
   25  C  3  X   -0.005350   0.007989  -0.002582   0.000893   0.020682
   26  C  3  Y    0.001395   0.005464   0.017435  -0.007528  -0.005741
   27  C  3  Z    0.001010  -0.000432   0.000763  -0.000375  -0.002361
   28  O  4  S    0.982619   0.000066   0.000265  -0.000010  -0.211908
   29  O  4  S    0.106490   0.000276   0.001663  -0.000425   0.196225
   30  O  4  X   -0.003823  -0.000388  -0.000610   0.000315  -0.101173
   31  O  4  Y    0.000821   0.000863   0.000486   0.000529   0.033049
   32  O  4  Z    0.000500   0.000098   0.000090  -0.000041   0.014050
   33  O  4  S   -0.056305  -0.000324  -0.000704   0.000234   0.659146
   34  O  4  X    0.012563   0.003898   0.004720  -0.000961  -0.122057
   35  O  4  Y    0.000723  -0.005185  -0.002225  -0.000563   0.027455
   36  O  4  Z   -0.001484  -0.000765  -0.000652   0.000182   0.016332
   37  H  5  S    0.001864   0.003010   0.001258  -0.000230   0.012472
   38  H  5  S   -0.000363   0.007236   0.002125   0.001200   0.003439
   39  H  6  S    0.000258  -0.000561  -0.001752  -0.000043   0.003653
   40  H  6  S   -0.000137  -0.001248   0.003118   0.016017  -0.004897
   41  H  7  S    0.000357  -0.000860  -0.001671  -0.000045   0.003553
   42  H  7  S    0.000665  -0.001150   0.002727   0.016035  -0.005446
   43  H  8  S   -0.001052   0.000485  -0.001602   0.000001   0.005918
   44  H  8  S   -0.000972   0.003385   0.001244   0.016268   0.002274
   45  H  9  S    0.003330   0.001906   0.001006   0.000223   0.100926
   46  H  9  S    0.004547  -0.001876   0.000693   0.001640   0.021988

                      6          7          8          9         10
                   -0.8811    -0.7424    -0.6053    -0.5271    -0.4442
                     A          A          A          A          A   
    1  N  1  S   -0.188323   0.062344  -0.033967  -0.038008   0.000869
    2  N  1  S    0.174381  -0.058271   0.031742   0.028135  -0.000412
    3  N  1  X    0.134258  -0.027848  -0.025321  -0.108482   0.014881
    4  N  1  Y   -0.004343  -0.057805   0.036624   0.305854  -0.004032
    5  N  1  Z   -0.017444   0.000960   0.004999   0.029113   0.106535
    6  N  1  S    0.568020  -0.202245   0.123755   0.166430  -0.005955
    7  N  1  X    0.128550  -0.036205  -0.007210  -0.049379   0.010714
    8  N  1  Y    0.003710  -0.030699   0.012511   0.193452  -0.001986
    9  N  1  Z   -0.016529   0.002937   0.001501   0.016127   0.084864
   10  C  2  S   -0.108031  -0.071215   0.094765   0.076940   0.000056
   11  C  2  S    0.124853   0.085247  -0.110095  -0.094324  -0.000321
   12  C  2  X   -0.166613   0.069410  -0.157980   0.231530   0.030238
   13  C  2  Y    0.054686  -0.158894  -0.053275   0.038427  -0.008518
   14  C  2  Z    0.024397  -0.015681   0.017144  -0.027972   0.228202
   15  C  2  S    0.140044   0.157804  -0.292245  -0.258144   0.001629
   16  C  2  X    0.031995   0.010371  -0.047810   0.107589   0.023389
   17  C  2  Y   -0.029499  -0.047610   0.020421   0.059608  -0.006362
   18  C  2  Z   -0.005114  -0.002768   0.006770  -0.011487   0.201350
   19  C  3  S   -0.031746  -0.183654  -0.091658  -0.034579   0.000189
   20  C  3  S    0.031724   0.181000   0.083843   0.027238  -0.000209
   21  C  3  X   -0.012561   0.006761  -0.028932   0.092856   0.035976
   22  C  3  Y    0.025774   0.048421  -0.099299  -0.103452  -0.012861
   23  C  3  Z    0.002898   0.001977  -0.000057  -0.016308   0.295772
   24  C  3  S    0.059193   0.509428   0.329805   0.156860   0.000027
   25  C  3  X   -0.031823   0.010948  -0.031258   0.062195   0.027480
   26  C  3  Y   -0.010600   0.009758  -0.028389  -0.030479  -0.008361
   27  C  3  Z    0.003198  -0.000977   0.002647  -0.008687   0.203973
   28  O  4  S    0.080777   0.017650  -0.015368  -0.008431   0.000729
   29  O  4  S   -0.077400  -0.017127   0.016616   0.010624  -0.000602
   30  O  4  X   -0.005226  -0.019912   0.160669  -0.050468   0.020400
   31  O  4  Y   -0.037209  -0.104910   0.300625  -0.137067  -0.007738
   32  O  4  Z   -0.000916  -0.002336  -0.005872  -0.000544   0.196004
   33  O  4  S   -0.280975  -0.065224   0.052000   0.031986  -0.002948
   34  O  4  X    0.001123  -0.010401   0.139287  -0.041799   0.021025
   35  O  4  Y   -0.016168  -0.080325   0.250565  -0.123002  -0.007747
   36  O  4  Z   -0.000765  -0.002677  -0.005535  -0.000826   0.198980
   37  H  5  S    0.094818  -0.065679   0.051015   0.222679   0.000257
   38  H  5  S    0.014104  -0.032576   0.041510   0.173781  -0.000052
   39  H  6  S    0.012606   0.096607   0.070121   0.061291   0.168326
   40  H  6  S   -0.003552   0.002167   0.026972   0.040419   0.146881
   41  H  7  S    0.012487   0.096453   0.065985   0.071461  -0.145514
   42  H  7  S   -0.003200   0.001383   0.024945   0.047713  -0.129414
   43  H  8  S    0.013323   0.090655   0.088271   0.000558  -0.022171
   44  H  8  S   -0.012652  -0.000368   0.032400   0.002485  -0.016895
   45  H  9  S   -0.058155  -0.065453   0.197150  -0.077472   0.000454
   46  H  9  S   -0.014726  -0.039208   0.137194  -0.049692  -0.000067

                     11         12         13         14         15
                   -0.4320    -0.3938    -0.3704    -0.3670    -0.2518
                     A          A          A          A          A   
    1  N  1  S    0.046095   0.000415  -0.048056   0.008132  -0.001926
    2  N  1  S   -0.032735   0.000426   0.039018  -0.006547   0.001255
    3  N  1  X    0.144466   0.063170   0.056143   0.006723   0.039856
    4  N  1  Y   -0.056519  -0.056574  -0.148498   0.017800  -0.021317
    5  N  1  Z   -0.023242  -0.010331   0.005459   0.116476   0.363347
    6  N  1  S   -0.238954   0.003627   0.269475  -0.046495   0.011429
    7  N  1  X    0.085871   0.057038   0.054801   0.004471   0.047316
    8  N  1  Y   -0.034856  -0.036941  -0.131145   0.016129  -0.025165
    9  N  1  Z   -0.014276  -0.008180   0.003905   0.099429   0.416979
   10  C  2  S   -0.004606  -0.017242   0.046737  -0.007522   0.000922
   11  C  2  S    0.015959   0.021645  -0.057563   0.009390  -0.001127
   12  C  2  X    0.003493  -0.052292  -0.130709   0.043481   0.027098
   13  C  2  Y    0.319988   0.005133   0.162543  -0.034354  -0.009952
   14  C  2  Z    0.011683   0.006952   0.055264   0.165913   0.195780
   15  C  2  S   -0.026847   0.046138  -0.137470   0.021901  -0.003661
   16  C  2  X   -0.053915  -0.007075   0.023981   0.020455   0.026638
   17  C  2  Y    0.297950   0.007422  -0.009337  -0.008111  -0.010891
   18  C  2  Z    0.018776   0.000935   0.031459   0.206248   0.171524
   19  C  3  S   -0.015391   0.000839   0.017235  -0.003362   0.000304
   20  C  3  S    0.004055  -0.000581  -0.014275   0.002506   0.000096
   21  C  3  X   -0.002615   0.376823   0.037900  -0.034622  -0.007329
   22  C  3  Y   -0.249734   0.052437  -0.223033   0.046585   0.000668
   23  C  3  Z   -0.011547  -0.042685  -0.052496  -0.240311  -0.044305
   24  C  3  S    0.155710  -0.000576  -0.143880   0.027624  -0.004120
   25  C  3  X   -0.013226   0.284062   0.044134  -0.030740  -0.016747
   26  C  3  Y   -0.135302   0.039993  -0.177135   0.037771  -0.002416
   27  C  3  Z   -0.010011  -0.032574  -0.041212  -0.229172  -0.005095
   28  O  4  S    0.046547   0.026622  -0.083615   0.014282   0.000141
   29  O  4  S   -0.043550  -0.022024   0.074233  -0.012812  -0.000061
   30  O  4  X   -0.272372   0.018789   0.252933  -0.000982  -0.044934
   31  O  4  Y    0.053525   0.094917  -0.222222   0.022037   0.015835
   32  O  4  Z    0.033451  -0.000770   0.015460   0.341960  -0.320758
   33  O  4  S   -0.182650  -0.132771   0.373230  -0.063112  -0.000786
   34  O  4  X   -0.270715   0.026301   0.275128  -0.002098  -0.054001
   35  O  4  Y    0.043091   0.092630  -0.213095   0.018773   0.019720
   36  O  4  Z    0.032583  -0.002324   0.017532   0.367058  -0.388011
   37  H  5  S   -0.078059  -0.042544  -0.093356   0.014671  -0.002033
   38  H  5  S   -0.078965  -0.045078  -0.134075   0.021930  -0.001248
   39  H  6  S    0.060962   0.094861   0.024907  -0.169780  -0.046070
   40  H  6  S    0.052671   0.085374   0.047608  -0.149430  -0.088787
   41  H  7  S    0.059500   0.148693   0.078415   0.131620   0.039683
   42  H  7  S    0.043883   0.133396   0.105432   0.100166   0.091503
   43  H  8  S    0.079071  -0.258079   0.027040   0.016640   0.006768
   44  H  8  S    0.050433  -0.235071   0.063099   0.009814  -0.000056
   45  H  9  S    0.007291   0.058724  -0.141478   0.024218   0.000697
   46  H  9  S   -0.029352   0.056454  -0.128357   0.022322  -0.000933

                     16         17         18         19         20
                   -0.2384     0.0420     0.0799     0.1483     0.1602
                     A          A          A          A          A   
    1  N  1  S    0.096112   0.000672   0.036186  -0.079573   0.043501
    2  N  1  S   -0.084938  -0.000550  -0.024700   0.036047  -0.013344
    3  N  1  X    0.371686  -0.040939  -0.045860   0.020836  -0.013665
    4  N  1  Y    0.190125   0.014463  -0.160189   0.100721  -0.152568
    5  N  1  Z   -0.030989  -0.337171   0.004687   0.007346  -0.003006
    6  N  1  S   -0.370472  -0.004177  -0.305677   0.780612  -0.472650
    7  N  1  X    0.429193  -0.062581  -0.028062   0.099810  -0.003186
    8  N  1  Y    0.154732   0.019254  -0.328904   0.268361  -0.312904
    9  N  1  Z   -0.039494  -0.519878  -0.001900   0.004140  -0.004689
   10  C  2  S   -0.033135   0.001383  -0.023661   0.000114   0.010012
   11  C  2  S    0.047721   0.000440   0.010861   0.024923   0.019201
   12  C  2  X   -0.100300   0.056296   0.048026   0.163035  -0.118176
   13  C  2  Y    0.026386  -0.021591   0.004161   0.060812  -0.052759
   14  C  2  Z    0.017650   0.445496  -0.014196  -0.018917   0.002678
   15  C  2  S    0.037876  -0.019965   0.156045  -0.128822  -0.123919
   16  C  2  X    0.136740   0.067931   0.052151   0.212328  -0.185691
   17  C  2  Y    0.075703  -0.026299  -0.211804   0.067000  -0.161138
   18  C  2  Z   -0.009406   0.553781  -0.030519  -0.027531  -0.014637
   19  C  3  S   -0.014474  -0.000111   0.056916  -0.092989  -0.124654
   20  C  3  S    0.006772   0.000588  -0.036170   0.046084   0.057773
   21  C  3  X   -0.043685   0.003425   0.019592   0.141773  -0.019016
   22  C  3  Y    0.058719   0.002006  -0.078072  -0.046913  -0.182085
   23  C  3  Z    0.005681   0.017584  -0.002155  -0.017397   0.020342
   24  C  3  S    0.134661  -0.000737  -0.636654   1.178264   1.655037
   25  C  3  X   -0.079649   0.035219   0.130436   0.598856  -0.098681
   26  C  3  Y    0.064255   0.000873  -0.130917  -0.171239  -0.614496
   27  C  3  Z    0.005196   0.197691  -0.004721  -0.072163   0.088098
   28  O  4  S    0.004574   0.001217   0.080927   0.053479  -0.037883
   29  O  4  S    0.006657  -0.001145  -0.052544  -0.033714   0.026495
   30  O  4  X    0.204602  -0.025550   0.043504   0.061352  -0.047457
   31  O  4  Y   -0.040744   0.006004  -0.235098  -0.046461  -0.056049
   32  O  4  Z   -0.033454  -0.186625  -0.012917  -0.013682   0.009448
   33  O  4  S   -0.113765  -0.007211  -0.676169  -0.447052   0.305316
   34  O  4  X    0.264516  -0.036816   0.042189   0.106444  -0.136406
   35  O  4  Y   -0.021672   0.004659  -0.443819  -0.101226  -0.076631
   36  O  4  Z   -0.041303  -0.261286  -0.020212  -0.020184   0.021285
   37  H  5  S    0.113742   0.001303   0.006102  -0.111485   0.059290
   38  H  5  S    0.111824   0.009574   0.562352  -0.865439   0.747586
   39  H  6  S   -0.018034  -0.097628  -0.007924  -0.053006  -0.017722
   40  H  6  S   -0.023844  -0.372064   0.127052  -0.856535  -0.896921
   41  H  7  S   -0.021530   0.083822  -0.013402  -0.073392   0.001418
   42  H  7  S   -0.026773   0.314176   0.118817  -1.007766  -0.651796
   43  H  8  S    0.016435   0.014640   0.028860   0.077733  -0.078469
   44  H  8  S   -0.051927   0.065329   0.333539   0.217302  -1.110175
   45  H  9  S   -0.025904   0.003277   0.122293   0.083338  -0.042888
   46  H  9  S    0.035429   0.016065   1.070877   0.484311  -0.084259

                     21         22         23         24         25
                    0.1989     0.2025     0.2556     0.3254     0.4806
                     A          A          A          A          A   
    1  N  1  S    0.038796   0.003827   0.038636   0.057309  -0.114872
    2  N  1  S   -0.014142   0.000216  -0.031425  -0.031235   0.046716
    3  N  1  X    0.052968  -0.026993  -0.100899  -0.186824   0.161106
    4  N  1  Y   -0.140370  -0.003266   0.067066  -0.078546  -0.279239
    5  N  1  Z   -0.007044  -0.062369   0.018208   0.019144  -0.039901
    6  N  1  S   -0.450179  -0.053460  -0.309734  -0.789661   1.806507
    7  N  1  X    0.038931  -0.056566  -0.206951  -0.595417   0.956128
    8  N  1  Y   -0.350133   0.021313   0.270965  -0.243440  -0.903818
    9  N  1  Z   -0.022669  -0.153710   0.045001   0.065690  -0.169785
   10  C  2  S    0.018329  -0.013468  -0.185455  -0.046746   0.044431
   11  C  2  S   -0.000497   0.003108   0.105325  -0.007848   0.027816
   12  C  2  X   -0.051787   0.021641   0.126401   0.193761   0.347524
   13  C  2  Y   -0.013197  -0.013079  -0.170287   0.422007  -0.058449
   14  C  2  Z    0.010380   0.142332  -0.028703  -0.004624  -0.046251
   15  C  2  S   -0.259907   0.193022   2.389882   0.391958  -1.153897
   16  C  2  X   -0.147291   0.047428   0.208781   0.282054   2.208726
   17  C  2  Y    0.041860  -0.073721  -0.869991   1.662829  -0.856150
   18  C  2  Z    0.037869   0.399422  -0.082318   0.040207  -0.323682
   19  C  3  S    0.012199  -0.003359   0.095874  -0.059785   0.003673
   20  C  3  S   -0.012136   0.004558  -0.019721   0.003915   0.019635
   21  C  3  X    0.313324  -0.059837   0.051114  -0.033529  -0.173211
   22  C  3  Y    0.064223  -0.022058  -0.235509   0.016375   0.020831
   23  C  3  Z   -0.056836  -0.372757   0.017004   0.014029   0.011888
   24  C  3  S   -0.134116   0.044056  -1.322046   1.171546  -0.337667
   25  C  3  X    1.079394  -0.212809   0.130911  -0.282741  -0.696510
   26  C  3  Y    0.263358  -0.097359  -1.461152   0.863966  -0.305062
   27  C  3  Z   -0.195796  -1.345877   0.015993   0.091196   0.070493
   28  O  4  S   -0.033936   0.002001   0.040200   0.064042   0.039355
   29  O  4  S    0.013567   0.000662  -0.031314  -0.043081  -0.014391
   30  O  4  X   -0.020661   0.004194   0.150590   0.266140   0.010394
   31  O  4  Y    0.112016  -0.003506   0.165293   0.123451   0.166139
   32  O  4  Z   -0.003303  -0.088727  -0.007108  -0.025348   0.010516
   33  O  4  S    0.368937  -0.029737  -0.317727  -0.631353  -0.494929
   34  O  4  X   -0.062485   0.009676   0.287641   0.603398   0.117368
   35  O  4  Y    0.172797   0.007847   0.391372   0.247438   0.439158
   36  O  4  Z    0.006283  -0.118460  -0.012855  -0.062211   0.008470
   37  H  5  S    0.067158  -0.003944   0.010102  -0.110652   0.004214
   38  H  5  S    0.733232   0.022576   0.012332   0.347755   0.610420
   39  H  6  S   -0.018087   0.065383  -0.060875   0.019428  -0.051140
   40  H  6  S   -0.308324   1.397541  -0.195092  -0.033337   0.214584
   41  H  7  S   -0.040687  -0.059954  -0.051499   0.020454  -0.085145
   42  H  7  S   -0.746144  -1.283561  -0.013023   0.053858   0.312113
   43  H  8  S    0.078046  -0.019897  -0.026082   0.044572   0.137986
   44  H  8  S    1.436272  -0.345753   0.041324  -0.241689  -0.577427
   45  H  9  S   -0.041578  -0.004870  -0.010477  -0.101333   0.085004
   46  H  9  S   -0.511091   0.020022  -0.265841  -0.394245  -0.353476

                     26         27         28         29         30
                    0.7132     0.7253     0.7410     0.8138     0.8334
                     A          A          A          A          A   
    1  N  1  S   -0.000266   0.002515  -0.027009  -0.038051   0.003294
    2  N  1  S    0.002948  -0.029033   0.002980   0.035187  -0.006278
    3  N  1  X    0.010525   0.034479   0.109790   0.007058   0.015532
    4  N  1  Y   -0.014808   0.102745  -0.027887  -0.020024   0.009576
    5  N  1  Z    0.092710   0.005702  -0.017740  -0.000320   0.131563
    6  N  1  S    0.004949   0.028008   0.102802  -0.115421  -0.021982
    7  N  1  X    0.004622   0.080388   0.329064   0.003392   0.007388
    8  N  1  Y    0.014308  -0.239477  -0.122079  -0.268958  -0.007893
    9  N  1  Z    0.071911  -0.018154  -0.044197  -0.005525   0.155039
   10  C  2  S    0.001464  -0.021316   0.012690   0.047247  -0.002247
   11  C  2  S   -0.002042  -0.005450   0.056520  -0.354462   0.016637
   12  C  2  X    0.089822   0.151553   0.866304   0.061146   0.071081
   13  C  2  Y   -0.021970  -0.267140   0.131490  -0.969070  -0.001793
   14  C  2  Z    0.834249   0.009979  -0.091568  -0.030216   0.578658
   15  C  2  S    0.044188  -0.866189  -0.312524  -0.098318  -0.004621
   16  C  2  X   -0.078768  -0.063259  -0.622408   0.313612  -0.189392
   17  C  2  Y   -0.011233   0.651853  -0.460698   1.867193   0.036688
   18  C  2  Z   -0.729074  -0.002193   0.041501   0.005630  -1.147497
   19  C  3  S   -0.001216   0.035252  -0.004149   0.006212  -0.000673
   20  C  3  S    0.005854  -0.133992   0.013240  -0.035743  -0.004920
   21  C  3  X    0.044675   0.096332   0.370155   0.160542  -0.115080
   22  C  3  Y    0.023451  -0.976139   0.169120   0.118139   0.036478
   23  C  3  Z    0.410228  -0.038508  -0.044953  -0.034144  -0.748970
   24  C  3  S   -0.023596   0.272849  -0.113438   0.947634   0.006204
   25  C  3  X   -0.072759  -0.173022  -0.639877  -0.457596   0.267817
   26  C  3  Y   -0.042806   1.541293  -0.297253   0.325471  -0.072359
   27  C  3  Z   -0.674720   0.062953   0.072551   0.117016   1.710791
   28  O  4  S   -0.000786   0.012629  -0.005358  -0.010920   0.000962
   29  O  4  S    0.002209  -0.029131  -0.004637   0.053565  -0.005038
   30  O  4  X    0.005060   0.007133   0.141697  -0.042549   0.018827
   31  O  4  Y   -0.008769   0.068077  -0.002508  -0.003809   0.002737
   32  O  4  Z    0.060015   0.006673  -0.014663   0.011503   0.125502
   33  O  4  S   -0.000788  -0.001033   0.316859  -0.388651   0.019834
   34  O  4  X    0.008985   0.018369  -0.043618   0.207435   0.007145
   35  O  4  Y    0.003295  -0.089647  -0.004405   0.044655  -0.020082
   36  O  4  Z    0.089292  -0.002103   0.006033  -0.020065   0.111625
   37  H  5  S   -0.012478   0.220327   0.155663  -0.250373   0.010874
   38  H  5  S    0.009265  -0.146354  -0.061778  -0.009048  -0.002161
   39  H  6  S    0.363807   0.191820   0.141035   0.007931  -0.335297
   40  H  6  S    0.038477   0.147207  -0.005787   0.069427  -0.431515
   41  H  7  S   -0.330428   0.170829   0.218977   0.040716   0.272768
   42  H  7  S   -0.043167   0.147761   0.007602   0.117886   0.358459
   43  H  8  S   -0.052537   0.127164  -0.404361  -0.056243   0.049867
   44  H  8  S   -0.011728   0.127241  -0.075072  -0.133508   0.075835
   45  H  9  S   -0.007793   0.177323  -0.105736  -0.386035   0.019616
   46  H  9  S    0.007943  -0.162206   0.202027  -0.046744  -0.005260

                     31         32         33         34         35
                    0.8637     0.9682     0.9912     1.0371     1.0395
                     A          A          A          A          A   
    1  N  1  S   -0.014877  -0.013303   0.002017   0.005512   0.029190
    2  N  1  S   -0.005832   0.016382   0.012592  -0.010868  -0.070668
    3  N  1  X   -0.117873   0.304442  -0.237777  -0.085368  -0.367320
    4  N  1  Y    0.017635   0.158953  -0.195249  -0.121450  -0.249060
    5  N  1  Z   -0.006460  -0.038225   0.022594   0.287939  -0.061615
    6  N  1  S    1.180876  -0.176498   0.123823  -0.056282  -0.324161
    7  N  1  X    0.303385  -0.275087   0.166972   0.022907   0.089969
    8  N  1  Y   -0.377088   0.028003   0.107140  -0.003905  -0.093128
    9  N  1  Z   -0.039561   0.042379  -0.018819  -0.235172   0.064802
   10  C  2  S   -0.008856   0.008446  -0.044997   0.002351   0.002966
   11  C  2  S   -0.000032  -0.019767   0.506997  -0.112886  -0.317582
   12  C  2  X   -0.559798   0.001559  -0.057524   0.005829  -0.000749
   13  C  2  Y    0.176026  -0.114879  -0.138660  -0.063712  -0.197243
   14  C  2  Z    0.088439  -0.006664  -0.001179   0.111347  -0.046463
   15  C  2  S   -0.139920   0.142562  -0.368536   0.079291   0.225426
   16  C  2  X    2.318941   0.167226   0.053098   0.006262  -0.168444
   17  C  2  Y   -0.558190   0.375401   0.057935   0.333252   1.199761
   18  C  2  Z   -0.343020  -0.003333  -0.001345  -0.052806   0.099925
   19  C  3  S   -0.000751   0.001421   0.089539  -0.013346  -0.047422
   20  C  3  S    0.039161  -0.013951  -0.140382   0.020856   0.049546
   21  C  3  X    0.832957   0.125645  -0.031638   0.082140   0.016948
   22  C  3  Y   -0.013124   0.048806   0.352340  -0.004863   0.085444
   23  C  3  Z   -0.122167  -0.020703   0.001446   0.662515  -0.211632
   24  C  3  S   -0.397117   0.184426   0.161330   0.164647   0.655193
   25  C  3  X   -2.145298  -0.400876  -0.001083  -0.124145   0.014207
   26  C  3  Y   -0.297234   0.003922  -0.222730   0.096324   0.240299
   27  C  3  Z    0.294924   0.056849   0.011280  -0.776641   0.255931
   28  O  4  S    0.021650   0.023251  -0.000934   0.007537   0.025324
   29  O  4  S    0.021041  -0.021601  -0.001743  -0.010973  -0.049789
   30  O  4  X   -0.101744   0.142791   0.116871   0.045488   0.139104
   31  O  4  Y   -0.050394  -0.269567  -0.135358  -0.090928  -0.231000
   32  O  4  Z    0.025571  -0.027992  -0.020231  -0.027398  -0.021408
   33  O  4  S   -0.728763  -0.047492   0.068342  -0.057102  -0.135838
   34  O  4  X    0.165408   0.019911  -0.085964   0.023679   0.070162
   35  O  4  Y    0.357752  -0.095621   0.009457  -0.015606  -0.104845
   36  O  4  Z   -0.006304  -0.008067   0.009635   0.020009  -0.021459
   37  H  5  S    0.113251  -0.731427   0.207149   0.229580   0.736476
   38  H  5  S    0.110196   0.674174  -0.194971  -0.198537  -0.638666
   39  H  6  S    0.070492   0.072954   0.650373  -0.852524  -0.041130
   40  H  6  S    0.298783   0.004808  -0.431486   1.209300  -0.200583
   41  H  7  S    0.119756   0.089258   0.627496   0.620764  -0.540245
   42  H  7  S    0.504703   0.041573  -0.390044  -0.974959   0.519959
   43  H  8  S   -0.190840  -0.140046   0.572050   0.024017  -0.191498
   44  H  8  S   -0.816644  -0.084488  -0.341621  -0.118788   0.087599
   45  H  9  S   -0.097099   0.992768   0.169689   0.219570   0.652372
   46  H  9  S   -0.037326  -0.908138  -0.108184  -0.205858  -0.606105

                     36         37         38         39         40
                    1.0714     1.1744     1.2223     1.3550     1.4812
                     A          A          A          A          A   
    1  N  1  S   -0.007719   0.000644   0.069895  -0.000059  -0.018714
    2  N  1  S    0.014052  -0.000956  -0.176324  -0.006629   0.024324
    3  N  1  X   -0.044514  -0.121669   0.838493  -0.174656  -0.222877
    4  N  1  Y   -0.025960   0.045202  -0.256565   0.657164  -0.719678
    5  N  1  Z    0.043844  -0.982801  -0.110703   0.060210  -0.015482
    6  N  1  S    0.434056  -0.010020  -0.626506  -0.063847  -0.237187
    7  N  1  X    0.096489   0.132407  -1.421703   0.335732   0.244192
    8  N  1  Y   -0.244200  -0.053250   0.301269  -1.154335   1.695787
    9  N  1  Z   -0.065366   1.118085   0.185877  -0.108142   0.072675
   10  C  2  S   -0.002899   0.000532   0.018320  -0.002978   0.004314
   11  C  2  S   -0.010724  -0.009766  -0.388719  -1.014745  -0.845627
   12  C  2  X   -0.249489   0.016106  -0.020871   0.020397   0.139585
   13  C  2  Y   -0.034562  -0.007370  -0.044273   0.184768   0.253563
   14  C  2  Z    0.018202   0.163480  -0.001178   0.005101  -0.000464
   15  C  2  S   -0.098663   0.017349   1.816393   1.217816   2.048570
   16  C  2  X    1.011830  -0.083980  -0.163024   0.623399  -0.850078
   17  C  2  Y    0.139430   0.034489   0.821240  -0.336370  -1.274947
   18  C  2  Z   -0.098099  -0.551425   0.070009  -0.088735   0.004198
   19  C  3  S   -0.008635   0.001062   0.015410   0.032781   0.036327
   20  C  3  S    0.015327  -0.012396  -0.014364  -0.583740  -0.309430
   21  C  3  X   -0.578943  -0.032741   0.002040  -0.053394   0.023258
   22  C  3  Y   -0.052856  -0.006296   0.125675   0.253766  -0.154788
   23  C  3  Z    0.033163   0.163132   0.003511   0.029920  -0.044815
   24  C  3  S    0.052030   0.019513   0.188823   0.769995  -0.637132
   25  C  3  X    0.296337   0.094299  -0.020392  -0.014109   0.281591
   26  C  3  Y    0.045696   0.006410  -0.197422  -0.840079  -0.557134
   27  C  3  Z    0.004482  -0.045460  -0.004555  -0.068933   0.051400
   28  O  4  S    0.024191   0.000089   0.029927   0.029519  -0.001349
   29  O  4  S   -0.038594  -0.000389  -0.034101  -0.061380   0.002564
   30  O  4  X   -0.038727   0.018863  -0.191093  -0.156797  -0.327726
   31  O  4  Y    0.046465  -0.004657  -0.033693   0.108486   0.009099
   32  O  4  Z   -0.012919   0.157520   0.022054  -0.003272  -0.012954
   33  O  4  S   -0.388707  -0.000524  -0.451252  -0.345948   0.178709
   34  O  4  X    0.130188  -0.004173   0.423406   0.291353   0.277765
   35  O  4  Y    0.127159  -0.000391   0.057829   0.011802   0.022799
   36  O  4  Z   -0.000424  -0.038018  -0.051271  -0.010308   0.027286
   37  H  5  S    0.122535   0.009535   0.583781   0.179065  -0.500762
   38  H  5  S   -0.004166  -0.009409  -0.710993   0.507858  -0.372115
   39  H  6  S    0.366889  -0.233370   0.124403   0.189620   0.149349
   40  H  6  S   -0.496746   0.279507  -0.149400  -0.519820  -0.352228
   41  H  7  S    0.496495   0.256054   0.120536   0.191164   0.137288
   42  H  7  S   -0.632461  -0.360288  -0.131816  -0.559964  -0.234255
   43  H  8  S   -1.032307  -0.006768   0.143351   0.211817   0.047994
   44  H  8  S    1.216231   0.061238  -0.204362  -0.615355   0.041262
   45  H  9  S    0.002217  -0.001810   0.031325   0.179911   0.059734
   46  H  9  S   -0.105281   0.002559  -0.037081  -0.240348   0.056727

                     41         42         43         44         45
                    1.4935     1.6306     1.8241     1.9517     2.6355
                     A          A          A          A          A   
    1  N  1  S    0.000756   0.008361   0.027511  -0.001365  -0.016552
    2  N  1  S   -0.002029   0.003546  -0.302400  -0.032132  -1.904899
    3  N  1  X    0.000853  -0.139531  -0.032271   0.060825  -0.205857
    4  N  1  Y    0.026917   0.178611  -0.103375  -0.000506   0.046400
    5  N  1  Z   -0.144938   0.021299   0.001434  -0.003380   0.030862
    6  N  1  S    0.029534  -0.268676  -0.073136   0.250382   4.103234
    7  N  1  X    0.020430   0.062893  -0.195363  -0.082830   1.438952
    8  N  1  Y   -0.079133  -0.427285   0.200958  -0.344767  -0.337928
    9  N  1  Z    0.327481  -0.019388   0.030186  -0.014134  -0.207488
   10  C  2  S    0.000701  -0.020152   0.020608   0.039585   0.005978
   11  C  2  S    0.077234   0.454202   0.522770   0.767227  -0.033376
   12  C  2  X    0.003814   0.233645  -0.038484   0.051100   0.087058
   13  C  2  Y   -0.024974  -0.061204  -0.183991  -0.041168   0.008549
   14  C  2  Z    0.116522  -0.028694  -0.004794  -0.010610  -0.010773
   15  C  2  S   -0.176788   0.019888  -1.631252  -2.391173  -1.463501
   16  C  2  X   -0.033226   0.102882  -0.814882   0.268135   1.832858
   17  C  2  Y    0.121112   0.694899   1.542977   1.505815  -1.670805
   18  C  2  Z   -0.632417   0.011129   0.189607   0.042641  -0.313504
   19  C  3  S   -0.002764  -0.004978  -0.040218  -0.069142   0.012812
   20  C  3  S    0.010237   0.686347  -0.511422  -1.821294   0.138937
   21  C  3  X    0.009540  -0.009983   0.148801  -0.020835  -0.008724
   22  C  3  Y    0.005662   0.039376   0.183820  -0.030179  -0.031240
   23  C  3  Z   -0.056192   0.010044   0.013616   0.005983   0.003842
   24  C  3  S    0.059202  -0.844665   2.248040   4.593877  -0.933080
   25  C  3  X   -0.014745  -0.009259  -0.302442  -0.103367  -0.479458
   26  C  3  Y    0.046057   0.249837   0.578376   0.918709  -0.411315
   27  C  3  Z    0.389697  -0.004809  -0.016641   0.037356   0.030876
   28  O  4  S   -0.000611   0.046496   0.010859   0.009037  -0.017401
   29  O  4  S    0.001105  -0.196819  -0.024023  -0.142803   0.191672
   30  O  4  X   -0.096219  -0.851176  -0.136336  -0.193026   0.034281
   31  O  4  Y    0.047048  -0.183293   0.881311  -0.371857  -0.189996
   32  O  4  Z   -0.997784   0.087868   0.063939   0.013807  -0.015262
   33  O  4  S   -0.003215  -0.034187   0.076250   0.215208  -0.251586
   34  O  4  X    0.109297   1.191305   0.101733   0.303223  -0.206275
   35  O  4  Y   -0.059728   0.253826  -1.693033   0.519087   0.611601
   36  O  4  Z    1.120508  -0.124060  -0.100853  -0.023752   0.058602
   37  H  5  S    0.022936   0.014411   0.005664   0.055010  -0.342679
   38  H  5  S    0.003525   0.279909  -0.359711   0.020433  -0.131194
   39  H  6  S   -0.070549   0.002447  -0.139545  -0.310399   0.065495
   40  H  6  S   -0.087610   0.316473  -0.007757  -0.499861   0.088561
   41  H  7  S    0.024167   0.010684  -0.115557  -0.308000   0.089568
   42  H  7  S    0.168363   0.282072  -0.093015  -0.516745   0.088557
   43  H  8  S    0.007564   0.034303  -0.128256  -0.288522  -0.037250
   44  H  8  S   -0.014641   0.277177  -0.385082  -0.550038  -0.116394
   45  H  9  S   -0.006832   0.211603   0.550256  -0.157218  -0.205264
   46  H  9  S    0.004379  -0.464888   0.281331  -0.314503   0.087764

                     46
                    3.0897
                     A   
    1  N  1  S   -0.012529
    2  N  1  S   -0.233427
    3  N  1  X   -0.029315
    4  N  1  Y   -0.073875
    5  N  1  Z   -0.000598
    6  N  1  S    0.518422
    7  N  1  X    0.388299
    8  N  1  Y    0.426662
    9  N  1  Z   -0.027566
   10  C  2  S    0.035581
   11  C  2  S   -0.047146
   12  C  2  X   -0.116161
   13  C  2  Y   -0.064856
   14  C  2  Z    0.011570
   15  C  2  S   -0.865623
   16  C  2  X   -0.822736
   17  C  2  Y   -1.161763
   18  C  2  Z    0.048691
   19  C  3  S    0.008993
   20  C  3  S    0.141239
   21  C  3  X    0.019282
   22  C  3  Y    0.000767
   23  C  3  Z    0.002620
   24  C  3  S   -0.674831
   25  C  3  X    0.258786
   26  C  3  Y   -0.202998
   27  C  3  Z   -0.058365
   28  O  4  S    0.053951
   29  O  4  S   -1.732497
   30  O  4  X    0.240392
   31  O  4  Y    0.022288
   32  O  4  Z   -0.027524
   33  O  4  S    2.689840
   34  O  4  X   -0.889797
   35  O  4  Y   -0.035775
   36  O  4  Z    0.106070
   37  H  5  S   -0.203146
   38  H  5  S   -0.023646
   39  H  6  S    0.002382
   40  H  6  S    0.056063
   41  H  7  S   -0.002530
   42  H  7  S    0.013795
   43  H  8  S    0.091585
   44  H  8  S    0.057034
   45  H  9  S   -0.331426
   46  H  9  S   -0.067648
 ...... END OF RHF CALCULATION ......
 STEP CPU TIME =     6.19 TOTAL CPU TIME =          6.2 (      0.1 MIN)
 TOTAL WALL CLOCK TIME=          6.4 SECONDS, CPU UTILIZATION IS    97.95%

     ---------------------------------------------------------------------
     PROPERTIES FOR THE B3LYP    DFT FUNCTIONAL (RHF  TYPE) DENSITY MATRIX
     ---------------------------------------------------------------------

          -----------------
          ENERGY COMPONENTS
          -----------------

         WAVEFUNCTION NORMALIZATION =       1.0000000000

                ONE ELECTRON ENERGY =    -521.5676163176
                TWO ELECTRON ENERGY =     192.7151809585
           NUCLEAR REPULSION ENERGY =     120.9507252330
                                      ------------------
                       TOTAL ENERGY =    -207.9017101261

 ELECTRON-ELECTRON POTENTIAL ENERGY =     192.7151809585
  NUCLEUS-ELECTRON POTENTIAL ENERGY =    -727.9827876790
   NUCLEUS-NUCLEUS POTENTIAL ENERGY =     120.9507252330
                                      ------------------
             TOTAL POTENTIAL ENERGY =    -414.3168814875
               TOTAL KINETIC ENERGY =     206.4151713614
                 VIRIAL RATIO (V/T) =       2.0072016933

          ---------------------------------------
          MULLIKEN AND LOWDIN POPULATION ANALYSES
          ---------------------------------------

     ATOMIC MULLIKEN POPULATION IN EACH MOLECULAR ORBITAL

                      1          2          3          4          5

                  2.000000   2.000000   2.000000   2.000000   2.000000

    1            -0.000031   1.986672  -0.000052   0.000000   0.091032
    2             0.005107   0.011848   1.993825   0.006539   0.220983
    3            -0.000002   0.000070   0.006638   1.983761   0.006180
    4             1.994047  -0.000015  -0.000698   0.000005   1.570009
    5            -0.000003   0.001425   0.000089   0.000001   0.003369
    6            -0.000000  -0.000001   0.000075   0.003213  -0.000605
    7             0.000002  -0.000001   0.000065   0.003216  -0.000751
    8            -0.000000   0.000016   0.000030   0.003264   0.000372
    9             0.000880  -0.000016   0.000028   0.000001   0.109411

                      6          7          8          9         10

                  2.000000   2.000000   2.000000   2.000000   2.000000

    1             1.311341   0.137178   0.045991   0.746681   0.095806
    2             0.353517   0.368372   0.307905   0.411080   0.477837
    3             0.042027   1.134148   0.346016   0.178715   0.662630
    4             0.190789   0.102465   0.837624   0.140079   0.301966
    5             0.080068   0.042230   0.026573   0.402704   0.000000
    6             0.000289   0.063236   0.043003   0.036428   0.260340
    7             0.000312   0.062445   0.037879   0.049742   0.197094
    8            -0.002209   0.052981   0.070022   0.000025   0.004325
    9             0.023867   0.036944   0.284987   0.034547   0.000001

                     11         12         13         14         15

                  2.000000   2.000000   2.000000   2.000000   2.000000

    1             0.238036   0.041328   0.189393   0.107468   1.047812
    2             0.567071   0.012003   0.193450   0.249738   0.233456
    3             0.403373   1.015810   0.328584   0.439269   0.006929
    4             0.622633   0.065776   0.982780   0.840112   0.672312
    5             0.050572   0.013605   0.092220   0.002361   0.000019
    6             0.034778   0.074228   0.010355   0.228234   0.021050
    7             0.030696   0.183308   0.067439   0.127373   0.018224
    8             0.051170   0.571137   0.013184   0.001866   0.000192
    9             0.001670   0.022806   0.122595   0.003578   0.000005

                     16

                  2.000000

    1             1.545515
    2             0.100353
    3             0.030562
    4             0.244031
    5             0.062275
    6             0.002610
    7             0.003413
    8             0.003165
    9             0.008076

               ----- POPULATIONS IN EACH AO -----
                             MULLIKEN      LOWDIN
              1  N  1  S      1.98820     1.97975
              2  N  1  S      0.39804     0.52886
              3  N  1  X      0.69362     0.68831
              4  N  1  Y      0.57477     0.53259
              5  N  1  Z      0.54220     0.53333
              6  N  1  S      1.42897     0.86466
              7  N  1  X      0.76318     0.83638
              8  N  1  Y      0.48830     0.62711
              9  N  1  Z      0.70691     0.72833
             10  C  2  S      1.98456     1.97388
             11  C  2  S      0.43195     0.42781
             12  C  2  X      0.56109     0.52639
             13  C  2  Y      0.61179     0.58469
             14  C  2  Z      0.44439     0.42239
             15  C  2  S      0.59267     0.51121
             16  C  2  X      0.09825     0.42730
             17  C  2  Y      0.27332     0.45566
             18  C  2  Z      0.51506     0.53157
             19  C  3  S      1.98651     1.97414
             20  C  3  S      0.37099     0.42282
             21  C  3  X      0.58830     0.54724
             22  C  3  Y      0.54569     0.51832
             23  C  3  Z      0.57431     0.53276
             24  C  3  S      1.12103     0.57767
             25  C  3  X      0.53703     0.58938
             26  C  3  Y      0.32629     0.52620
             27  C  3  Z      0.53457     0.59119
             28  O  4  S      1.98490     1.97870
             29  O  4  S      0.42261     0.57630
             30  O  4  X      0.72288     0.71724
             31  O  4  Y      0.61956     0.58718
             32  O  4  Z      0.82428     0.82894
             33  O  4  S      1.49819     0.99813
             34  O  4  X      0.85044     0.88524
             35  O  4  Y      0.65885     0.71597
             36  O  4  Z      0.98220     0.98085
             37  H  5  S      0.47189     0.46611
             38  H  5  S      0.30562     0.39173
             39  H  6  S      0.46594     0.46261
             40  H  6  S      0.31129     0.42333
             41  H  7  S      0.46648     0.46294
             42  H  7  S      0.31398     0.42507
             43  H  8  S      0.46518     0.46116
             44  H  8  S      0.30436     0.42056
             45  H  9  S      0.43627     0.44047
             46  H  9  S      0.21311     0.31755

          ----- MULLIKEN ATOMIC OVERLAP POPULATIONS -----
          (OFF-DIAGONAL ELEMENTS NEED TO BE MULTIPLIED BY 2)

             1           2           3           4           5

    1    6.9687642
    2    0.4782394   4.7732094
    3   -0.0842939   0.2274229   5.4438215
    4   -0.0805647   0.2463833  -0.0730407   8.2238829
    5    0.2969740  -0.0684010   0.0075841  -0.0075572   0.5373637
    6    0.0004506  -0.0416928   0.3590614   0.0015400  -0.0001655
    7    0.0012659  -0.0385680   0.3520332   0.0023255  -0.0001762
    8    0.0040495  -0.0310248   0.3452290   0.0018843  -0.0001651
    9   -0.0007130  -0.0324842   0.0068944   0.2490603   0.0120525

             6           7           8           9

    6    0.5019936
    7   -0.0231425   0.5085486
    8   -0.0206556  -0.0216560   0.4920621
    9   -0.0001571  -0.0001746  -0.0001837   0.4150863

          TOTAL MULLIKEN AND LOWDIN ATOMIC POPULATIONS
       ATOM         MULL.POP.    CHARGE          LOW.POP.     CHARGE
    1 N             7.584172   -0.584172         7.319329   -0.319329
    2 C             5.513084    0.486916         5.860890    0.139110
    3 C             6.584712   -0.584712         6.279712   -0.279712
    4 O             8.563914   -0.563914         8.268547   -0.268547
    5 H             0.777509    0.222491         0.857841    0.142159
    6 H             0.777232    0.222768         0.885938    0.114062
    7 H             0.780456    0.219544         0.888008    0.111992
    8 H             0.769540    0.230460         0.881717    0.118283
    9 H             0.649381    0.350619         0.758018    0.241982

          -------------------------------
          BOND ORDER AND VALENCE ANALYSIS     BOND ORDER THRESHOLD=0.050
          -------------------------------

                   BOND                       BOND                       BOND
  ATOM PAIR DIST  ORDER      ATOM PAIR DIST  ORDER      ATOM PAIR DIST  ORDER
    1   2  1.289  1.789        1   4  2.316  0.117        1   5  1.023  0.866
    2   3  1.503  0.913        2   4  1.353  0.993        3   6  1.094  0.905
    3   7  1.094  0.904        3   8  1.094  0.905        4   9  0.968  0.807

                       TOTAL       BONDED        FREE
      ATOM            VALENCE     VALENCE     VALENCE
    1 N                 2.823       2.823      -0.000
    2 C                 3.703       3.703      -0.000
    3 C                 3.638       3.638       0.000
    4 O                 1.935       1.935      -0.000
    5 H                 0.920       0.920      -0.000
    6 H                 0.908       0.908      -0.000
    7 H                 0.911       0.911       0.000
    8 H                 0.912       0.912      -0.000
    9 H                 0.866       0.866       0.000

          ---------------------
          ELECTROSTATIC MOMENTS
          ---------------------

 POINT   1           X           Y           Z (BOHR)    CHARGE
                -0.000002    0.000004   -0.000004       -0.00 (A.U.)
         DX          DY          DZ         /D/  (DEBYE)
     1.416449    1.132511   -0.106882    1.816682
 ...... END OF PROPERTY EVALUATION ......
 STEP CPU TIME =     0.01 TOTAL CPU TIME =          6.2 (      0.1 MIN)
 TOTAL WALL CLOCK TIME=          6.4 SECONDS, CPU UTILIZATION IS    97.80%

 BEGINNING ONE ELECTRON GRADIENT...
 ..... END OF 1-ELECTRON GRADIENT ......
 STEP CPU TIME =     0.00 TOTAL CPU TIME =          6.2 (      0.1 MIN)
 TOTAL WALL CLOCK TIME=          6.4 SECONDS, CPU UTILIZATION IS    97.65%

          ----------------------
          GRADIENT OF THE ENERGY
          ----------------------
 MEMORY FOR GRID POINT CONTRIBUTIONS TO THE DFT GRADIENT=    587967 WORDS.
 STEP CPU TIME =     1.57 TOTAL CPU TIME =          7.8 (      0.1 MIN)
 TOTAL WALL CLOCK TIME=          7.9 SECONDS, CPU UTILIZATION IS    98.24%
 THE COARSE/FINE SCHWARZ SCREENINGS SKIPPED         5944/        2421 BLOCKS.
 THE NUMBER OF GRADIENT INTEGRAL BLOCKS COMPUTED WAS     23652
 ...... END OF 2-ELECTRON GRADIENT ......
 STEP CPU TIME =     0.03 TOTAL CPU TIME =          7.8 (      0.1 MIN)
 TOTAL WALL CLOCK TIME=          8.0 SECONDS, CPU UTILIZATION IS    98.24%

          NSERCH=  0     ENERGY=    -207.9017101

                                 -----------------------
                                 GRADIENT (HARTREE/BOHR)
                                 -----------------------
        ATOM     ZNUC       DE/DX         DE/DY         DE/DZ
 --------------------------------------------------------------
    1  N            7.0     0.0000035     0.0302085     0.0022280
    2  C            6.0     0.0407911    -0.0174165    -0.0058795
    3  C            6.0     0.0044344    -0.0009457     0.0013958
    4  O            8.0    -0.0426276     0.0236982     0.0066026
    5  H            1.0     0.0006141    -0.0115339    -0.0008741
    6  H            1.0    -0.0028760     0.0012990     0.0010061
    7  H            1.0    -0.0029852     0.0001566    -0.0015952
    8  H            1.0    -0.0014429    -0.0042776    -0.0012413
    9  H            1.0     0.0040888    -0.0211885    -0.0016425

          MAXIMUM GRADIENT = 0.0426276    RMS GRADIENT = 0.0149208

 NSERCH:   0  E=     -207.9017101261  GRAD. MAX=  0.0426276  R.M.S.=  0.0149208

          FORCE CONSTANT MATRIX NOT UPDATED --- TAKING FIRST STEP
          MIN SEARCH, CORRECT HESSIAN, TRYING PURE NR STEP
               NR STEP HAS LENGTH         =   3.490972
          TRIM/QA LAMBDA FOR NON-TS MODES =  -0.00711556
          TRIM/QA STEP HAS LENGTH         =   0.300000
          RADIUS OF STEP TAKEN=   0.30000  CURRENT TRUST RADIUS=   0.30000

 BEGINNING GEOMETRY SEARCH POINT NSERCH=   1 ...

 COORDINATES OF ALL ATOMS ARE (ANGS)
   ATOM   CHARGE       X              Y              Z
 ------------------------------------------------------------
 N           7.0  -1.2461428465   0.6222641442   0.1471259171
 C           6.0  -0.1071240450   0.0647396064   0.0156350180
 C           6.0   0.0031025181  -1.4425877350  -0.0697632990
 O           8.0   1.1761470583   0.5958163932  -0.1276889000
 H           1.0  -1.0965621221   1.6551166469   0.2371582124
 H           1.0   0.5749078071  -1.8373148954   0.7818483687
 H           1.0   0.5695616739  -1.7497149482  -0.9567335192
 H           1.0  -0.9945030795  -1.8797821215  -0.0717450517
 H           1.0   1.0092030355   1.5904429093  -0.0415967462

          INTERNUCLEAR DISTANCES (ANGS.)
          ------------------------------

                1 N          2 C          3 C          4 O          5 H     

   1 N       0.0000000    1.2749460 *  2.4230700 *  2.4379727 *  1.0475039 *
   2 C       1.2749460 *  0.0000000    1.5137630 *  1.3961981 *  1.8860963 *
   3 C       2.4230700 *  1.5137630 *  0.0000000    2.3525476 *  3.3013990  
   4 O       2.4379727 *  1.3961981 *  2.3525476 *  0.0000000    2.5338582 *
   5 H       1.0475039 *  1.8860963 *  3.3013990    2.5338582 *  0.0000000  
   6 H       3.1254803    2.1610325 *  1.0990966 *  2.6662473 *  3.9099331  
   7 H       3.1845837    2.1669447 *  1.0963208 *  2.5606206 *  3.9741948  
   8 H       2.5241756 *  2.1392152 *  1.0892014 *  3.2929379    3.5498375  
   9 H       2.4616197 *  1.8913572 *  3.1956700    1.0122075 *  2.1251197 *

                6 H          7 H          8 H          9 H     

   1 N       3.1254803    3.1845837    2.5241756 *  2.4616197 *
   2 C       2.1610325 *  2.1669447 *  2.1392152 *  1.8913572 *
   3 C       1.0990966 *  1.0963208 *  1.0892014 *  3.1956700  
   4 O       2.6662473 *  2.5606206 *  3.2929379    1.0122075 *
   5 H       3.9099331    3.9741948    3.5498375    2.1251197 *
   6 H       0.0000000    1.7407956 *  1.7870299 *  3.5519287  
   7 H       1.7407956 *  0.0000000    1.8017826 *  3.4910477  
   8 H       1.7870299 *  1.8017826 *  0.0000000    4.0072695  
   9 H       3.5519287    3.4910477    4.0072695    0.0000000  

  * ... LESS THAN  3.000

 ...... END OF ONE-ELECTRON INTEGRALS ......
 STEP CPU TIME =     0.00 TOTAL CPU TIME =          7.8 (      0.1 MIN)
 TOTAL WALL CLOCK TIME=          8.0 SECONDS, CPU UTILIZATION IS    98.12%
  ...... END OF TWO-ELECTRON INTEGRALS .....
 STEP CPU TIME =     0.00 TOTAL CPU TIME =          7.8 (      0.1 MIN)
 TOTAL WALL CLOCK TIME=          8.0 SECONDS, CPU UTILIZATION IS    98.00%

          --------------------------
             R-B3LYP SCF CALCULATION
          --------------------------
         DENSITY MATRIX CONVERGENCE THRESHOLD=  1.00E-04
     COARSE -> FINE DFT GRID SWITCH THRESHOLD=  1.50E-03 (SWITCH IN $DFT)
                   HF -> DFT SWITCH THRESHOLD=  5.00E-03 (SWOFF IN $DFT)

 DIRECT SCF CALCULATION, SCHWRZ=T   FDIFF=T,  DIRTHR=  0.00E+00 NITDIR=10

 DFT CODE IS SWITCHING FROM THE FINE GRID NRAD= 96,  NLEB=  590
                      TO THE COARSE GRID NRAD0= 24, NLEB0=  110

                                                                                   NONZERO     BLOCKS
 ITER EX DEM     TOTAL ENERGY        E CHANGE  DENSITY CHANGE    DIIS ERROR      INTEGRALS    SKIPPED
          * * *   INITIATING DIIS PROCEDURE   * * *
   1  0  0     -207.8913091527  -207.8913091527   0.063579311   0.036497674         537233       5046
   2  1  0     -207.8986610518    -0.0073518991   0.031866245   0.032711837         532921       6374
   3  2  0     -207.8979082086     0.0007528432   0.015876300   0.040479753         530562       6861
   4  3  0     -207.9003161510    -0.0024079424   0.004445823   0.008215311         529264       7037
   5  4  0     -207.9004385409    -0.0001223899   0.000532431   0.000620747         521705       7865
 DFT CODE IS SWITCHING BACK TO THE FINE GRID
          * * *   INITIATING DIIS PROCEDURE   * * *
   6  5  0     -207.9018112790    -0.0013727381   0.001837755   0.001308591         537239       5042
   7  6  0     -207.9018199763    -0.0000086972   0.000791213   0.000979218         518074       8143
   8  7  0     -207.9018192803     0.0000006960   0.000418680   0.001159659         514644       8506
   9  8  0     -207.9018211849    -0.0000019046   0.000125741   0.000173210         510277       8860
  10  9  0     -207.9018212468    -0.0000000619   0.000031878   0.000068663         495321      10094
  11 10  0     -207.9018212542    -0.0000000074   0.000015326   0.000013949         484230      10852

          -----------------
          DENSITY CONVERGED
          -----------------
     TIME TO FORM FOCK OPERATORS=       5.0 SECONDS (       0.5 SEC/ITER)
     FOCK TIME ON FIRST ITERATION=       0.1, LAST ITERATION=       0.8
     TIME TO SOLVE SCF EQUATIONS=       0.1 SECONDS (       0.0 SEC/ITER)

 FINAL R-B3LYP ENERGY IS     -207.9018212542 AFTER  11 ITERATIONS
 DFT EXCHANGE + CORRELATION ENERGY =       -22.6093533785
 TOTAL ELECTRON NUMBER             =        31.9999923793
 ...... END OF RHF CALCULATION ......
 STEP CPU TIME =     5.16 TOTAL CPU TIME =         13.0 (      0.2 MIN)
 TOTAL WALL CLOCK TIME=         13.2 SECONDS, CPU UTILIZATION IS    98.33%
 ..... END OF 1-ELECTRON GRADIENT ......
 STEP CPU TIME =     0.01 TOTAL CPU TIME =         13.0 (      0.2 MIN)
 TOTAL WALL CLOCK TIME=         13.2 SECONDS, CPU UTILIZATION IS    98.34%
 MEMORY FOR GRID POINT CONTRIBUTIONS TO THE DFT GRADIENT=    587967 WORDS.
 STEP CPU TIME =     1.55 TOTAL CPU TIME =         14.6 (      0.2 MIN)
 TOTAL WALL CLOCK TIME=         14.8 SECONDS, CPU UTILIZATION IS    98.44%
 ...... END OF 2-ELECTRON GRADIENT ......
 STEP CPU TIME =     0.03 TOTAL CPU TIME =         14.6 (      0.2 MIN)
 TOTAL WALL CLOCK TIME=         14.8 SECONDS, CPU UTILIZATION IS    98.38%

          NSERCH=  1     ENERGY=    -207.9018213

                                 -----------------------
                                 GRADIENT (HARTREE/BOHR)
                                 -----------------------
        ATOM     ZNUC       DE/DX         DE/DY         DE/DZ
 --------------------------------------------------------------
    1  N            7.0    -0.0159812    -0.0185893    -0.0058834
    2  C            6.0     0.0002155     0.0456993     0.0092017
    3  C            6.0    -0.0022850     0.0043510    -0.0021345
    4  O            8.0     0.0173815    -0.0278919    -0.0074033
    5  H            1.0     0.0119467    -0.0016019     0.0019989
    6  H            1.0     0.0022521    -0.0032845    -0.0014916
    7  H            1.0     0.0030923    -0.0032682     0.0020611
    8  H            1.0    -0.0001554     0.0000314     0.0007573
    9  H            1.0    -0.0164665     0.0045541     0.0028940

          MAXIMUM GRADIENT = 0.0456993    RMS GRADIENT = 0.0128597

 NSERCH:   1  E=     -207.9018212542  GRAD. MAX=  0.0456993  R.M.S.=  0.0128597

          HESSIAN UPDATED USING THE BFGS FORMULA
             ACTUAL ENERGY CHANGE WAS  -0.0001111280
          PREDICTED ENERGY CHANGE WAS  -0.0070841230 RATIO=  0.016
          MIN SEARCH, CORRECT HESSIAN, TRYING PURE NR STEP
               NR STEP HAS LENGTH         =  24.506263
          TRIM/QA LAMBDA FOR NON-TS MODES =  -0.06432606
          TRIM/QA STEP HAS LENGTH         =   0.150000
          RADIUS OF STEP TAKEN=   0.15000  CURRENT TRUST RADIUS=   0.15000

 BEGINNING GEOMETRY SEARCH POINT NSERCH=   2 ...

 COORDINATES OF ALL ATOMS ARE (ANGS)
   ATOM   CHARGE       X              Y              Z
 ------------------------------------------------------------
 N           7.0  -1.2209619984   0.6330213852   0.1753772891
 C           6.0  -0.1152870911   0.0377381992  -0.0126870393
 C           6.0   0.0062936424  -1.4628802719  -0.0701118949
 O           8.0   1.1564408092   0.6104378341  -0.1068672264
 H           1.0  -1.1173304487   1.6673115666   0.2241602663
 H           1.0   0.5753908691  -1.8342528943   0.7896280106
 H           1.0   0.5671140804  -1.7487193157  -0.9660312882
 H           1.0  -0.9969848093  -1.8850192682  -0.0732464697
 H           1.0   1.0339149464   1.6013427650  -0.0459816474

          INTERNUCLEAR DISTANCES (ANGS.)
          ------------------------------

                1 N          2 C          3 C          4 O          5 H     

   1 N       0.0000000    1.2697430 *  2.4411524 *  2.3942047 *  1.0406130 *
   2 C       1.2697430 *  0.0000000    1.5066304 *  1.3979079 *  1.9276143 *
   3 C       2.4411524 *  1.5066304 *  0.0000000    2.3712523 *  3.3387465  
   4 O       2.3942047 *  1.3979079 *  2.3712523 *  0.0000000    2.5291495 *
   5 H       1.0406130 *  1.9276143 *  3.3387465    2.5291495 *  0.0000000  
[...]
                   Z -2.42459171 18.66937134 -1.23334693 -0.00535988  0.70108336
               TOTAL 13.34568504 18.81960795 13.90816062  0.02112932  0.70414857

                            6           7           8           9          10
       FREQUENCY:         0.27      137.80      407.68      476.32      540.51  
        SYMMETRY:         A           A           A           A           A   
    REDUCED MASS:      6.34071     1.08227     2.82209     1.09553     2.35163
    IR INTENSITY:      0.00004     0.04082     0.16473     3.01120     0.00589

  1   N            X  0.00127303 -0.00370767  0.04674146  0.00010459 -0.00246199
                   Y  0.01608631  0.00293465 -0.09282311 -0.00079285  0.00480642
                   Z  0.11875542 -0.04867497 -0.00832768  0.00299223 -0.05211580
  2   C            X  0.00209884  0.00076707  0.09151151 -0.00403007  0.01609533
                   Y  0.01579461 -0.00047138 -0.01245577  0.00282557 -0.01130656
                   Z  0.12802651  0.01078481 -0.00757729 -0.05417424  0.20465553
  3   C            X  0.00329908 -0.00086796 -0.11583697  0.00171607  0.00033510
                   Y  0.01521577  0.00033252 -0.03558812 -0.00103218 -0.00221082
                   Z  0.14042407 -0.00513772  0.00755262  0.02554780 -0.00398694
  4   O            X  0.00207397  0.00415967  0.02859107 -0.00386044 -0.00751982
                   Y  0.01593496 -0.00300252  0.12461165  0.00272865  0.00446210
                   Z  0.12867675  0.04882462  0.00377780 -0.05156389 -0.06821411
  5   H            X  0.00048692 -0.00527358 -0.03079686 -0.00176289 -0.02089501
                   Y  0.01648178  0.00417282 -0.08758114 -0.00025404  0.01896746
                   Z  0.11075587 -0.07470602 -0.00202684 -0.00707203 -0.34888998
  6   H            X  0.00024602  0.45562438 -0.21359401  0.02876640 -0.00622464
                   Y  0.02213372  0.04273900 -0.18511615  0.09844434 -0.28223525
                   Z  0.14582654 -0.33671821  0.01470468  0.04998232 -0.13004571
  7   H            X  0.00719784 -0.50257651 -0.21568243 -0.02231185 -0.01056466
                   Y  0.00802600 -0.01347055 -0.18501816 -0.10307557  0.28827632
                   Z  0.14461862 -0.26613220  0.00072852  0.04422071 -0.10240260
  8   H            X  0.00333688  0.03887503 -0.23153864  0.00736602 -0.01290747
                   Y  0.01507100 -0.02445774  0.22719154 -0.00423503  0.00592688
                   Z  0.13995375  0.51467744  0.02994293  0.10194387 -0.17718643
  9   H            X  0.00127629  0.00048403 -0.12199316  0.07533238  0.00850276
                   Y  0.01632309 -0.00041641  0.11463637 -0.04452263 -0.00756551
                   Z  0.12044723 -0.00406107  0.01270051  0.92856216  0.17582661

 TRANS. SAYVETZ    X  0.12841630  0.00043688 -0.00004161  0.00002307 -0.00000747
                   Y  0.93090673  0.00003709  0.00002262  0.00000028  0.00001981
                   Z  7.60929941 -0.00113492  0.00000484  0.00000579 -0.00009438
               TOTAL  7.66710607  0.00121667  0.00004761  0.00002379  0.00009673

   ROT. SAYVETZ    X -0.81565434  0.10722958 -0.00075938 -0.00649233 -0.00676439
                   Y -0.38124555 -0.21621459  0.00162649 -0.01127042  0.00650936
                   Z  0.07299903 -0.09652466  0.00572030  0.00899697  0.00610019
               TOTAL  0.90331004  0.25993065  0.00599533  0.01581513  0.01119558

                           11          12          13          14          15
       FREQUENCY:       542.39      837.18      875.20     1009.65     1111.84  
        SYMMETRY:         A           A           A           A           A   
    REDUCED MASS:      3.07692     4.48054     1.32299     2.01757     1.48593
    IR INTENSITY:      0.92993     0.46746     2.68479     2.01738     1.74875

  1   N            X  0.08920240  0.09000909 -0.00828399  0.00161201 -0.11340706
                   Y  0.10861172 -0.05930278  0.00507635 -0.02627373 -0.00498384
                   Z -0.00085213 -0.01010079 -0.10314616 -0.00149979  0.00888765
  2   C            X -0.01351537  0.05699856  0.00683413 -0.05735903 -0.03907574
                   Y -0.07578888 -0.04520158 -0.00399107 -0.10410190 -0.05604466
                   Z -0.00697787 -0.00666338  0.08459674 -0.00039805 -0.00121841
  3   C            X  0.02285899  0.00014275  0.00038547 -0.09969881  0.07054770
                   Y -0.11511297  0.16245217 -0.00021837  0.06488356  0.03358793
                   Z -0.00715440  0.00777203  0.00271055  0.01132561 -0.00216372
  4   O            X -0.09673398 -0.12133614 -0.00298179  0.10230714  0.04501842
                   Y  0.06097182 -0.05889490  0.00166616  0.03805755  0.01694283
                   Z  0.01195627  0.00688459 -0.03572250 -0.00649594 -0.00270962
  5   H            X  0.35612425  0.20537110  0.06800962  0.20619823  0.67241845
                   Y  0.09823672 -0.06111753 -0.04118371 -0.03124136  0.00258034
                   Z -0.01689186 -0.01948045  0.85168131 -0.01691421 -0.05112371
  6   H            X  0.03704213 -0.02156221 -0.00267179  0.10868604 -0.10760092
                   Y -0.08504905  0.12440021  0.02452542  0.29138034 -0.15032763
                   Z -0.00417226  0.00698477  0.01971055 -0.03978496  0.04322777
  7   H            X  0.03665977 -0.02115675  0.00539746  0.11490266 -0.11691644
                   Y -0.09675634  0.12432013 -0.02693442  0.29142777 -0.13386549
                   Z -0.00556877  0.00842812  0.01652424  0.04976381 -0.04319737
  8   H            X  0.04386689 -0.03023845  0.00364240  0.08691886 -0.06724921
                   Y -0.16666243  0.24199344 -0.00200420 -0.34223153  0.32556406
                   Z -0.00749831  0.01398941  0.04742236 -0.02403110  0.01775886
  9   H            X -0.28911497 -0.13771069  0.00208286 -0.29271481  0.10584004
                   Y  0.04652202 -0.06698425 -0.00125574  0.01868195  0.02379236
                   Z  0.02449024  0.00795821  0.02520468  0.02478623 -0.00687867

 TRANS. SAYVETZ    X  0.00000201  0.00000027 -0.00000055  0.00001624 -0.00001925
                   Y  0.00001095  0.00001686  0.00000218 -0.00000457  0.00000301
                   Z  0.00000338 -0.00000001  0.00000582 -0.00000153  0.00000093
               TOTAL  0.00001163  0.00001686  0.00000624  0.00001694  0.00001950

   ROT. SAYVETZ    X -0.00041095 -0.00020949  0.00168412 -0.00057014 -0.00060602
                   Y  0.00173435  0.00085957  0.00167209  0.00138064  0.00068083
                   Z  0.00592992  0.00112147  0.00035596 -0.00016002  0.00290821
               TOTAL  0.00619200  0.00142844  0.00239976  0.00150228  0.00304770

                           16          17          18          19          20
       FREQUENCY:      1120.22     1185.71     1379.14     1450.92     1536.75  
        SYMMETRY:         A           A           A           A           A   
    REDUCED MASS:      1.50280     1.32943     2.10954     1.23711     1.06406
    IR INTENSITY:      0.00570     4.77274     1.09096     0.42323     0.28639

  1   N            X  0.00177241 -0.00233884  0.08559243 -0.01442478 -0.01573464
                   Y  0.00008194 -0.05190329  0.00998239 -0.00119095  0.02045452
                   Z  0.00125466 -0.00235012 -0.00638724  0.00109754  0.00224492
  2   C            X -0.00853426  0.04732927 -0.12938109  0.01981991  0.00216671
                   Y  0.00629064  0.06156075 -0.13023765  0.01787777 -0.03992069
                   Z -0.11346408 -0.00082563  0.00420576 -0.00061089 -0.00168992
  3   C            X  0.00953661 -0.07391203  0.02528144  0.00295659 -0.04827007
                   Y -0.00677626 -0.03464039  0.01735334 -0.12566107  0.00427530
                   Z  0.12940855  0.00431607 -0.00137484 -0.00617973  0.00495710
  4   O            X -0.00013330 -0.05988814 -0.00180549  0.00096717 -0.00104937
                   Y -0.00067223  0.02910719  0.05422254 -0.00661884  0.00536806
                   Z  0.00802546  0.00622297  0.00272936 -0.00042531  0.00029268
  5   H            X  0.00451532  0.39564098 -0.26114060  0.04877118 -0.05674876
                   Y -0.00902524 -0.04202967 -0.03155575  0.00722260  0.01489771
                   Z  0.18769363 -0.03337783  0.01926714 -0.00363879  0.00518978
  6   H            X  0.10446352  0.10134897 -0.07029616  0.10249428  0.45921217
                   Y -0.47127665  0.12122470  0.06022559  0.47005327 -0.12323760
                   Z -0.17286092 -0.05223138  0.07895067  0.17050297 -0.41623748
  7   H            X -0.12470600  0.10819089 -0.07936465  0.07769439  0.50227003
                   Y  0.48626761  0.11810679  0.06681965  0.48331094 -0.17316198
                   Z -0.10906486  0.04713451 -0.06066494 -0.13868144  0.32624839
  8   H            X -0.02031624  0.05646644 -0.04855139 -0.23979409 -0.17346286
                   Y  0.01104274 -0.31779786  0.17567824  0.45271180  0.33241204
                   Z -0.26838994 -0.02047095  0.01395736  0.03851833  0.01437133
  9   H            X  0.00159824  0.63784629  0.53825862 -0.07529034  0.05295487
                   Y -0.00169892  0.05916974  0.07368806 -0.00833900  0.00411436
                   Z  0.02796521 -0.04872501 -0.03978982  0.00565299 -0.00430998

 TRANS. SAYVETZ    X  0.00000051  0.00001265  0.00000559 -0.00000195  0.00000380
                   Y -0.00000291 -0.00000030  0.00001132  0.00000899 -0.00000188
                   Z -0.00000637 -0.00000097 -0.00000209 -0.00000100  0.00000061
               TOTAL  0.00000702  0.00001269  0.00001279  0.00000925  0.00000428

   ROT. SAYVETZ    X -0.00199663 -0.00010885 -0.00029734 -0.00009378  0.00004169
                   Y -0.00096078  0.00066362  0.00030257  0.00024542  0.00041130
                   Z -0.00098070 -0.00107198  0.00426819  0.00063325  0.00086074
               TOTAL  0.00242310  0.00126546  0.00428922  0.00068559  0.00095487

                           21          22          23          24          25
       FREQUENCY:      1544.69     1745.37     3070.74     3120.63     3186.74  
        SYMMETRY:         A           A           A           A           A   
    REDUCED MASS:      1.04326     5.42819     1.03631     1.09821     1.09858
    IR INTENSITY:      0.25441     2.85796     0.14404     0.21816     0.10472

  1   N            X -0.00047880 -0.10494169 -0.00053692 -0.00001455  0.00038601
                   Y  0.00040868  0.08052363 -0.00045609  0.00000305  0.00099510
                   Z  0.00063168  0.01230860  0.00002029 -0.00014454  0.00001756
  2   C            X -0.00131007  0.17272839  0.00120492 -0.00007657 -0.00269093
                   Y  0.00055728 -0.14647225  0.00032740  0.00007501  0.00092294
                   Z -0.02241570 -0.02087073 -0.00006650 -0.00107366  0.00025619
  3   C            X -0.00496818 -0.00944839  0.02571946 -0.00659886 -0.08433348
                   Y  0.00215994  0.02214844 -0.04273526  0.00368609 -0.01896766
                   Z -0.05049035  0.00183838 -0.00324132 -0.08619148  0.00579327
  4   O            X  0.00009162 -0.02263729 -0.00006865  0.00000672  0.00049574
                   Y -0.00010281  0.01224014 -0.00024085 -0.00000706  0.00021967
                   Z  0.00206176  0.00240262 -0.00000854  0.00010041 -0.00002821
  5   H            X -0.00036175 -0.21577788  0.00012131 -0.00010340  0.00271150
                   Y  0.00012991  0.10601752  0.00995124  0.00013749 -0.01651987
                   Z  0.00638268  0.02232132  0.00049536 -0.00138944 -0.00101323
  6   H            X -0.31415216 -0.04968141 -0.36404880  0.39030136  0.11698586
                   Y -0.34628018  0.07290126  0.20959702 -0.22683437 -0.08173492
                   Z  0.05297932  0.05909501 -0.49850385  0.49052951  0.18320369
  7   H            X  0.34317507 -0.05789962 -0.27706699 -0.31419272  0.08900268
                   Y  0.33700134  0.07764270  0.15535306  0.17869788 -0.06402543
                   Z  0.05075629 -0.04367052  0.55547982  0.57226123 -0.20899156
  8   H            X  0.04997659  0.04643819  0.33035319  0.00352472  0.81347254
                   Y -0.02659228 -0.08845971  0.13578320  0.00333306  0.35927676
                   Z  0.70479729 -0.00816433 -0.01855251 -0.02276821 -0.04499003
  9   H            X  0.00131486  0.15014099 -0.00139421  0.00004845  0.00078074
                   Y -0.00066093 -0.00087835  0.00441997 -0.00004729  0.00054622
                   Z  0.01166888 -0.01211731  0.00031981  0.00083060 -0.00003506

 TRANS. SAYVETZ    X -0.00000001  0.00000103 -0.00000117 -0.00000026 -0.00000047
                   Y -0.00000205  0.00000410  0.00000173 -0.00000005 -0.00000007
                   Z  0.00000283  0.00000044 -0.00000072 -0.00000200 -0.00000007
               TOTAL  0.00000350  0.00000425  0.00000221  0.00000202  0.00000048

   ROT. SAYVETZ    X  0.00033136 -0.00003513 -0.00000093 -0.00016475 -0.00000327
                   Y  0.00000997  0.00033170 -0.00009021 -0.00029807  0.00008730
                   Z -0.00063669  0.00102684 -0.00001077 -0.00005022 -0.00014991
               TOTAL  0.00071783  0.00107966  0.00009086  0.00034425  0.00017351

                           26          27
       FREQUENCY:      3302.85     3475.06  
        SYMMETRY:         A           A   
    REDUCED MASS:      1.07554     1.06503
    IR INTENSITY:      0.41349     0.03034

  1   N            X  0.00783808 -0.00009850
                   Y -0.06825237  0.00079970
                   Z -0.00393460  0.00004677
  2   C            X -0.01064648  0.00354980
                   Y -0.00332198 -0.00447593
                   Z  0.00069430 -0.00050374
  3   C            X -0.00092978 -0.00078127
                   Y  0.00102732  0.00127205
                   Z  0.00011817  0.00011718
  4   O            X  0.00020938  0.00043245
                   Y  0.00144921 -0.05957374
                   Z  0.00005199 -0.00290624
  5   H            X -0.00509932 -0.00480424
                   Y  0.96028339  0.00815415
                   Z  0.04693845  0.00077548
  6   H            X  0.00654014  0.00231951
                   Y -0.00610917  0.00060225
                   Z  0.00609240  0.00179533
  7   H            X  0.00552457  0.00201427
                   Y -0.00549840  0.00084628
                   Z -0.00759095 -0.00200884
  8   H            X  0.00939942 -0.00099332
                   Y  0.00927196 -0.00218419
                   Z -0.00026838 -0.00000872
  9   H            X  0.00924358 -0.03699637
                   Y -0.00530375  0.96509619
                   Z -0.00100139  0.04952381

 TRANS. SAYVETZ    X -0.00000013 -0.00000102
                   Y -0.00000034 -0.00000034
                   Z  0.00000063  0.00000006
               TOTAL  0.00000072  0.00000108

   ROT. SAYVETZ    X -0.00006904  0.00003744
                   Y  0.00003584 -0.00004498
                   Z  0.00012351 -0.00007225
               TOTAL  0.00014597  0.00009298

 REFERENCE ON SAYVETZ CONDITIONS - A. SAYVETZ, J.CHEM.PHYS., 7, 383-389(1939).

 NOTE - THE MODES J,K ARE ORTHONORMALIZED ACCORDING TO
 SUM ON I   M(I) * (X(I,J)*X(I,K) + Y(I,J)*Y(I,K) + Z(I,J)*Z(I,K)) = DELTA(J,K)

  MODE FREQ(CM**-1)  SYMMETRY  RED. MASS  IR INTENS.
     1       9.605    A        5.009628    0.048963
     2       4.455    A        3.994158    0.032368
     3       3.926    A        2.903632    0.017041
     4       0.011    A        6.560213    0.000000
     5       0.168    A        6.463460    0.000046
     6       0.267    A        6.340714    0.000042
     7     137.797    A        1.082272    0.040816
     8     407.680    A        2.822090    0.164729
     9     476.324    A        1.095525    3.011199
    10     540.511    A        2.351630    0.005890
    11     542.388    A        3.076917    0.929933
    12     837.182    A        4.480543    0.467461
    13     875.203    A        1.322992    2.684790
    14    1009.649    A        2.017573    2.017382
    15    1111.841    A        1.485933    1.748745
    16    1120.222    A        1.502802    0.005699
    17    1185.707    A        1.329435    4.772736
    18    1379.137    A        2.109544    1.090959
    19    1450.916    A        1.237106    0.423228
    20    1536.749    A        1.064064    0.286394
    21    1544.693    A        1.043259    0.254410
    22    1745.372    A        5.428188    2.857962
    23    3070.745    A        1.036309    0.144042
    24    3120.634    A        1.098210    0.218160
    25    3186.739    A        1.098579    0.104724
    26    3302.852    A        1.075544    0.413494
    27    3475.061    A        1.065032    0.030338

     -------------------------------
     THERMOCHEMISTRY AT T=  298.15 K
     -------------------------------

 USING IDEAL GAS, RIGID ROTOR, HARMONIC NORMAL MODE APPROXIMATIONS.
 P=  1.01325E+05 PASCAL.
 ALL FREQUENCIES ARE SCALED BY   1.00000
 THE MOMENTS OF INERTIA ARE (IN AMU*BOHR**2)
            175.67747           193.49785           357.92687
 THE ROTATIONAL SYMMETRY NUMBER IS  1.0
 THE ROTATIONAL CONSTANTS ARE (IN GHZ)
     10.26363     9.31839     5.03759
      7 -     27 VIBRATIONAL MODES ARE USED IN THERMOCHEMISTRY.
 THE HARMONIC ZERO POINT ENERGY IS (SCALED BY   1.000)
        0.073032 HARTREE/MOLECULE    16028.700826 CM**-1/MOLECULE 
       45.828401 KCAL/MOL              191.746031 KJ/MOL

               Q               LN Q
 ELEC.     1.00000E+00       0.000000
 TRANS.    1.78296E+07      16.696370
 ROT.      3.94852E+04      10.583682
 VIB.      3.27768E+00       1.187136
 TOT.      2.30750E+12      28.467188

              E         H         G         CV        CP        S
           KJ/MOL    KJ/MOL    KJ/MOL   J/MOL-K   J/MOL-K   J/MOL-K
 ELEC.      0.000     0.000     0.000     0.000     0.000     0.000
 TRANS.     3.718     6.197   -41.389    12.472    20.786   159.606
 ROT.       3.718     3.718   -26.236    12.472    12.472   100.469
 VIB.     196.606   196.606   188.803    40.135    40.135    26.172
 TOTAL    204.043   206.522   121.178    65.079    73.393   286.247
 VIB. THERMAL CORRECTION E(T)-E(0) = H(T)-H(0) =      4860.341 J/MOL

              E         H         G         CV        CP        S
         KCAL/MOL  KCAL/MOL  KCAL/MOL CAL/MOL-K CAL/MOL-K CAL/MOL-K
 ELEC.      0.000     0.000     0.000     0.000     0.000     0.000
 TRANS.     0.889     1.481    -9.892     2.981     4.968    38.147
 ROT.       0.889     0.889    -6.271     2.981     2.981    24.013
 VIB.      46.990    46.990    45.125     9.593     9.593     6.255
 TOTAL     48.767    49.360    28.962    15.554    17.541    68.415
 VIB. THERMAL CORRECTION E(T)-E(0) = H(T)-H(0) =      1161.649 CAL/MOL
 ......END OF NORMAL COORDINATE ANALYSIS......
 STEP CPU TIME =     0.00 TOTAL CPU TIME =        530.3 (      8.8 MIN)
 TOTAL WALL CLOCK TIME=        558.5 SECONDS, CPU UTILIZATION IS    94.96%
                662120  WORDS OF DYNAMIC MEMORY USED
 EXECUTION OF GAMESS TERMINATED NORMALLY Fri Oct  7 21:34:49 2022
 DDI: 263640 bytes (0.3 MB / 0 MWords) used by master data server.

 ----------------------------------------
 CPU timing information for all processes
 ========================================
 0: 525.979 + 4.353 = 530.333
 ----------------------------------------
 ddikick.x: exited gracefully.
----- accounting info -----
Files used on the master node chemcompute-node-1.novalocal were:
-rw-r--r--. 1 chemcomp chemcomp     1001 Oct  7 21:25 /scratch/121637/461747.F05
-rw-rw-r--. 1 chemcomp chemcomp 70451200 Oct  7 21:34 /scratch/121637/461747.F10
-rw-rw-r--. 1 chemcomp chemcomp  4613504 Oct  7 21:34 /scratch/121637/461747.F22
Fri Oct  7 21:34:52 UTC 2022
0.094u 0.042s 9:21.84 0.0%	0+0k 8+208io 0pf+0w
Finishing Up...
Looking for IR data...
Looking for Raman data...
vibramans not found
Looking for thermodynamics data...
Looking for UV-Vis data...
chemcompute.org
{'UTCtimestamp': '2022-10-07T21:34:54.045246', 'cluster': 'jetstream2', 'clusterJobNumber': '121637', 'status': 'COMPLETE', 'nodeList': 'chemcompute-node-1'}
121637
